<?xml version="1.0"?>
<VTKFile type="UnstructuredGrid"  version="0.1"  >
<UnstructuredGrid>
<Piece  NumberOfPoints="16705" NumberOfCells="32768">
<Points>
<DataArray  type="Float32"  NumberOfComponents="3"  format="ascii">0 0 0  1 0 0  1 1 0  0 1 0  -1 1 0  -1 0 0  -1 -1 0  0 -1 0  1 -1 0  1 0 0  0.5 0.5 0  0 0.5 0  0.5 0 0  0.5 1 0  1 0.5 0  -0.5 1 0  -0.5 0.5 0  -1 0.5 0  -0.5 0 0  -0.5 -0.5 0  0 -0.5 0  -0.5 -1 0  -1 -0.5 0  0.5 -1 0  0.5 -0.5 0  1 -0.5 0  0.5 0 0  0.25 0.25 0  0.25 0 0  0 0.25 0  0.5 0.25 0  0.75 0 0  0.75 0.25 0  0.25 0.5 0  0 0.75 0  0.25 0.75 0  0.75 0.5 0  1 0.25 0  0.75 0.75 0  1 0.75 0  0.75 1 0  0.5 0.75 0  0.25 1 0  -0.25 0.5 0  -0.25 0.25 0  -0.25 0.75 0  -0.25 1 0  -0.5 0.75 0  -0.75 0.75 0  -0.75 1 0  -0.5 0.25 0  -0.25 0 0  -0.75 0.5 0  -1 0.75 0  -0.75 0.25 0  -0.75 0 0  -1 0.25 0  -0.25 -0.25 0  0 -0.25 0  -0.5 -0.25 0  -0.75 -0.25 0  -0.25 -0.5 0  0 -0.75 0  -0.25 -0.75 0  -0.75 -0.5 0  -1 -0.25 0  -0.75 -0.75 0  -1 -0.75 0  -0.75 -1 0  -0.5 -0.75 0  -0.25 -1 0  0.25 -0.5 0  0.25 -0.25 0  0.25 -0.75 0  0.25 -1 0  0.5 -0.75 0  0.75 -0.75 0  0.75 -1 0  0.5 -0.25 0  0.25 0 0  0.75 -0.5 0  1 -0.75 0  0.75 -0.25 0  0.75 0 0  1 -0.25 0  0.125 0.125 0  0 0.125 0  0.125 0 0  0.125 0.25 0  0 0.375 0  0.125 0.375 0  0.25 0.125 0  0.375 0 0  0.375 0.125 0  0.75 0.125 0  0.875 0.125 0  0.875 0 0  0.625 0.25 0  0.625 0.375 0  0.5 0.375 0  0.625 0.125 0  0.625 0 0  0.5 0.125 0  0.125 0.75 0  0.125 0.875 0  0 0.875 0  0.25 0.625 0  0.375 0.625 0  0.375 0.5 0  0.125 0.625 0  0 0.625 0  0.125 0.5 0  0.375 0.375 0  0.25 0.375 0  0.375 0.25 0  0.875 0.25 0  1 0.125 0  0.75 0.375 0  0.625 0.5 0  0.875 0.375 0  1 0.375 0  0.875 0.5 0  0.875 0.875 0  0.875 1 0  1 0.875 0  0.75 0.875 0  0.625 1 0  0.625 0.875 0  0.875 0.75 0  1 0.625 0  0.875 0.625 0  0.25 0.875 0  0.125 1 0  0.375 0.75 0  0.5 0.625 0  0.375 0.875 0  0.375 1 0  0.5 0.875 0  0.625 0.625 0  0.625 0.75 0  0.75 0.625 0  -0.125 0.25 0  -0.125 0.125 0  -0.125 0.375 0  -0.125 0.5 0  -0.25 0.375 0  -0.375 0.375 0  -0.375 0.5 0  -0.125 0.875 0  -0.125 1 0  -0.125 0.75 0  -0.125 0.625 0  -0.25 0.875 0  -0.375 1 0  -0.375 0.875 0  -0.75 0.875 0  -0.875 1 0  -0.875 0.875 0  -0.625 0.875 0  -0.625 1 0  -0.5 0.875 0  -0.625 0.75 0  -0.625 0.625 0  -0.5 0.625 0  -0.25 0.625 0  -0.375 0.75 0  -0.375 0.625 0  -0.25 0.125 0  -0.125 0 0  -0.375 0.25 0  -0.5 0.375 0  -0.375 0.125 0  -0.375 0 0  -0.5 0.125 0  -0.875 0.75 0  -1 0.875 0  -0.75 0.625 0  -0.625 0.5 0  -0.875 0.625 0  -1 0.625 0  -0.875 0.5 0  -0.875 0.125 0  -1 0.125 0  -0.875 0 0  -0.875 0.25 0  -1 0.375 0  -0.875 0.375 0  -0.75 0.125 0  -0.625 0 0  -0.625 0.125 0  -0.625 0.375 0  -0.75 0.375 0  -0.625 0.25 0  -0.125 -0.125 0  0 -0.125 0  -0.25 -0.125 0  -0.375 -0.125 0  -0.125 -0.25 0  0 -0.375 0  -0.125 -0.375 0  -0.75 -0.125 0  -0.875 -0.125 0  -0.625 -0.125 0  -0.5 -0.125 0  -0.625 -0.25 0  -0.625 -0.375 0  -0.5 -0.375 0  -0.125 -0.75 0  -0.125 -0.875 0  0 -0.875 0  -0.25 -0.625 0  -0.375 -0.625 0  -0.375 -0.5 0  -0.125 -0.625 0  0 -0.625 0  -0.125 -0.5 0  -0.375 -0.25 0  -0.375 -0.375 0  -0.25 -0.375 0  -0.875 -0.25 0  -1 -0.125 0  -0.75 -0.375 0  -0.625 -0.5 0  -0.875 -0.375 0  -1 -0.375 0  -0.875 -0.5 0  -0.875 -0.875 0  -0.875 -1 0  -1 -0.875 0  -0.75 -0.875 0  -0.625 -1 0  -0.625 -0.875 0  -0.875 -0.75 0  -1 -0.625 0  -0.875 -0.625 0  -0.25 -0.875 0  -0.125 -1 0  -0.375 -0.75 0  -0.5 -0.625 0  -0.375 -0.875 0  -0.375 -1 0  -0.5 -0.875 0  -0.625 -0.625 0  -0.625 -0.75 0  -0.75 -0.625 0  0.125 -0.25 0  0.125 -0.125 0  0.125 -0.375 0  0.125 -0.5 0  0.25 -0.375 0  0.375 -0.375 0  0.375 -0.5 0  0.125 -0.875 0  0.125 -1 0  0.125 -0.75 0  0.125 -0.625 0  0.25 -0.875 0  0.375 -1 0  0.375 -0.875 0  0.75 -0.875 0  0.875 -1 0  0.875 -0.875 0  0.625 -0.875 0  0.625 -1 0  0.5 -0.875 0  0.625 -0.75 0  0.625 -0.625 0  0.5 -0.625 0  0.25 -0.625 0  0.375 -0.75 0  0.375 -0.625 0  0.25 -0.125 0  0.125 0 0  0.375 -0.25 0  0.5 -0.375 0  0.375 -0.125 0  0.375 0 0  0.5 -0.125 0  0.875 -0.75 0  1 -0.875 0  0.75 -0.625 0  0.625 -0.5 0  0.875 -0.625 0  1 -0.625 0  0.875 -0.5 0  0.875 -0.125 0  1 -0.125 0  0.875 0 0  0.875 -0.25 0  1 -0.375 0  0.875 -0.375 0  0.75 -0.125 0  0.625 0 0  0.625 -0.125 0  0.625 -0.375 0  0.75 -0.375 0  0.625 -0.25 0  0.0625 0.0625 0  0.0625 0 0  0 0.0625 0  0.125 0.0625 0  0.1875 0 0  0.1875 0.0625 0  0.0625 0.125 0  0 0.1875 0  0.0625 0.1875 0  0.0625 0.375 0  0.0625 0.4375 0  0 0.4375 0  0.125 0.3125 0  0.1875 0.3125 0  0.1875 0.25 0  0.0625 0.3125 0  0 0.3125 0  0.0625 0.25 0  0.375 0.0625 0  0.4375 0.0625 0  0.4375 0 0  0.3125 0.125 0  0.3125 0.1875 0  0.25 0.1875 0  0.3125 0.0625 0  0.3125 0 0  0.25 0.0625 0  0.1875 0.1875 0  0.1875 0.125 0  0.125 0.1875 0  0.875 0.0625 0  0.9375 0 0  0.9375 0.0625 0  0.8125 0.0625 0  0.8125 0 0  0.75 0.0625 0  0.8125 0.125 0  0.8125 0.1875 0  0.75 0.1875 0  0.5625 0.375 0  0.5 0.4375 0  0.5625 0.4375 0  0.5625 0.3125 0  0.5 0.3125 0  0.5625 0.25 0  0.625 0.3125 0  0.6875 0.3125 0  0.6875 0.25 0  0.5625 0.0625 0  0.5 0.0625 0  0.5625 0 0  0.5625 0.125 0  0.5 0.1875 0  0.5625 0.1875 0  0.625 0.0625 0  0.6875 0 0  0.6875 0.0625 0  0.625 0.1875 0  0.6875 0.125 0  0.6875 0.1875 0  0.0625 0.875 0  0 0.9375 0  0.0625 0.9375 0  0.0625 0.8125 0  0 0.8125 0  0.0625 0.75 0  0.125 0.8125 0  0.1875 0.8125 0  0.1875 0.75 0  0.375 0.5625 0  0.4375 0.5 0  0.4375 0.5625 0  0.3125 0.5625 0  0.3125 0.5 0  0.25 0.5625 0  0.3125 0.625 0  0.3125 0.6875 0  0.25 0.6875 0  0.0625 0.5625 0  0.0625 0.5 0  0 0.5625 0  0.125 0.5625 0  0.1875 0.5 0  0.1875 0.5625 0  0.0625 0.625 0  0 0.6875 0  0.0625 0.6875 0  0.1875 0.625 0  0.125 0.6875 0  0.1875 0.6875 0  0.4375 0.4375 0  0.4375 0.375 0  0.4375 0.3125 0  0.375 0.4375 0  0.3125 0.4375 0  0.125 0.4375 0  0.1875 0.375 0  0.25 0.3125 0  0.1875 0.4375 0  0.25 0.4375 0  0.4375 0.125 0  0.375 0.1875 0  0.3125 0.25 0  0.4375 0.1875 0  0.4375 0.25 0  0.3125 0.3125 0  0.375 0.3125 0  0.3125 0.375 0  0.9375 0.125 0  1 0.0625 0  0.875 0.1875 0  0.8125 0.25 0  0.9375 0.1875 0  1 0.1875 0  0.9375 0.25 0  0.625 0.4375 0  0.5625 0.5 0  0.6875 0.375 0  0.75 0.3125 0  0.6875 0.4375 0  0.6875 0.5 0  0.75 0.4375 0  0.9375 0.4375 0  0.9375 0.5 0  1 0.4375 0  0.875 0.4375 0  0.8125 0.5 0  0.8125 0.4375 0  0.9375 0.375 0  1 0.3125 0  0.9375 0.3125 0  0.8125 0.3125 0  0.8125 0.375 0  0.875 0.3125 0  0.9375 0.9375 0  1 0.9375 0  0.9375 1 0  0.9375 0.875 0  1 0.8125 0  0.9375 0.8125 0  0.875 0.9375 0  0.8125 1 0  0.8125 0.9375 0  0.625 0.9375 0  0.5625 0.9375 0  0.5625 1 0  0.6875 0.875 0  0.6875 0.8125 0  0.75 0.8125 0  0.6875 0.9375 0  0.6875 1 0  0.75 0.9375 0  0.9375 0.625 0  0.9375 0.5625 0  1 0.5625 0  0.875 0.6875 0  0.8125 0.6875 0  0.8125 0.75 0  0.9375 0.6875 0  1 0.6875 0  0.9375 0.75 0  0.8125 0.8125 0  0.875 0.8125 0  0.8125 0.875 0  0.125 0.9375 0  0.0625 1 0  0.1875 0.875 0  0.25 0.8125 0  0.1875 0.9375 0  0.1875 1 0  0.25 0.9375 0  0.4375 0.625 0  0.5 0.5625 0  0.375 0.6875 0  0.3125 0.75 0  0.4375 0.6875 0  0.5 0.6875 0  0.4375 0.75 0  0.4375 0.9375 0  0.5 0.9375 0  0.4375 1 0  0.4375 0.875 0  0.5 0.8125 0  0.4375 0.8125 0  0.375 0.9375 0  0.3125 1 0  0.3125 0.9375 0  0.3125 0.8125 0  0.375 0.8125 0  0.3125 0.875 0  0.5625 0.5625 0  0.625 0.5625 0  0.6875 0.5625 0  0.5625 0.625 0  0.5625 0.6875 0  0.5625 0.875 0  0.625 0.8125 0  0.6875 0.75 0  0.5625 0.8125 0  0.5625 0.75 0  0.875 0.5625 0  0.8125 0.5625 0  0.75 0.5625 0  0.8125 0.625 0  0.75 0.6875 0  0.6875 0.625 0  0.6875 0.6875 0  0.625 0.6875 0  -0.0625 0.125 0  -0.0625 0.0625 0  -0.0625 0.1875 0  -0.0625 0.25 0  -0.125 0.1875 0  -0.1875 0.1875 0  -0.1875 0.25 0  -0.0625 0.4375 0  -0.0625 0.5 0  -0.0625 0.375 0  -0.0625 0.3125 0  -0.125 0.4375 0  -0.1875 0.5 0  -0.1875 0.4375 0  -0.375 0.4375 0  -0.4375 0.5 0  -0.4375 0.4375 0  -0.3125 0.4375 0  -0.3125 0.5 0  -0.25 0.4375 0  -0.3125 0.375 0  -0.3125 0.3125 0  -0.25 0.3125 0  -0.125 0.3125 0  -0.1875 0.375 0  -0.1875 0.3125 0  -0.0625 0.9375 0  -0.0625 1 0  -0.0625 0.875 0  -0.0625 0.8125 0  -0.125 0.9375 0  -0.1875 1 0  -0.1875 0.9375 0  -0.0625 0.625 0  -0.0625 0.5625 0  -0.0625 0.6875 0  -0.0625 0.75 0  -0.125 0.6875 0  -0.1875 0.6875 0  -0.1875 0.75 0  -0.375 0.9375 0  -0.4375 0.9375 0  -0.4375 1 0  -0.3125 0.875 0  -0.3125 0.8125 0  -0.25 0.8125 0  -0.3125 0.9375 0  -0.3125 1 0  -0.25 0.9375 0  -0.125 0.8125 0  -0.1875 0.8125 0  -0.1875 0.875 0  -0.875 0.9375 0  -0.9375 0.9375 0  -0.9375 1 0  -0.8125 0.875 0  -0.8125 0.8125 0  -0.75 0.8125 0  -0.8125 0.9375 0  -0.8125 1 0  -0.75 0.9375 0  -0.5625 0.9375 0  -0.5 0.9375 0  -0.5625 1 0  -0.5625 0.875 0  -0.5 0.8125 0  -0.5625 0.8125 0  -0.625 0.9375 0  -0.6875 1 0  -0.6875 0.9375 0  -0.5625 0.625 0  -0.5 0.5625 0  -0.5625 0.5625 0  -0.5625 0.6875 0  -0.5 0.6875 0  -0.5625 0.75 0  -0.625 0.6875 0  -0.6875 0.6875 0  -0.6875 0.75 0  -0.625 0.8125 0  -0.6875 0.8125 0  -0.6875 0.875 0  -0.125 0.5625 0  -0.1875 0.5625 0  -0.25 0.5625 0  -0.1875 0.625 0  -0.25 0.6875 0  -0.4375 0.875 0  -0.375 0.8125 0  -0.3125 0.75 0  -0.4375 0.8125 0  -0.4375 0.75 0  -0.4375 0.5625 0  -0.375 0.5625 0  -0.3125 0.5625 0  -0.4375 0.625 0  -0.4375 0.6875 0  -0.3125 0.625 0  -0.3125 0.6875 0  -0.375 0.6875 0  -0.125 0.0625 0  -0.0625 0 0  -0.1875 0.125 0  -0.25 0.1875 0  -0.1875 0.0625 0  -0.1875 0 0  -0.25 0.0625 0  -0.4375 0.375 0  -0.5 0.4375 0  -0.375 0.3125 0  -0.3125 0.25 0  -0.4375 0.3125 0  -0.5 0.3125 0  -0.4375 0.25 0  -0.4375 0.0625 0  -0.5 0.0625 0  -0.4375 0 0  -0.4375 0.125 0  -0.5 0.1875 0  -0.4375 0.1875 0  -0.375 0.0625 0  -0.3125 0 0  -0.3125 0.0625 0  -0.3125 0.1875 0  -0.375 0.1875 0  -0.3125 0.125 0  -0.9375 0.875 0  -1 0.9375 0  -0.875 0.8125 0  -0.8125 0.75 0  -0.9375 0.8125 0  -1 0.8125 0  -0.9375 0.75 0  -0.625 0.5625 0  -0.5625 0.5 0  -0.6875 0.625 0  -0.75 0.6875 0  -0.6875 0.5625 0  -0.6875 0.5 0  -0.75 0.5625 0  -0.9375 0.5625 0  -0.9375 0.5 0  -1 0.5625 0  -0.875 0.5625 0  -0.8125 0.5 0  -0.8125 0.5625 0  -0.9375 0.625 0  -1 0.6875 0  -0.9375 0.6875 0  -0.8125 0.6875 0  -0.8125 0.625 0  -0.875 0.6875 0  -0.9375 0.0625 0  -0.9375 0 0  -1 0.0625 0  -0.875 0.0625 0
[...]
<PointData  Vectors="u"> 
<DataArray  type="Float32"  Name="u"  NumberOfComponents="3" format="ascii">-2.961832e-06 -1.295298e-06 0.000000e+00  -2.436075e-08 6.470987e-08 0.000000e+00  4.359099e-08 -1.343364e-07 0.000000e+00  -3.924574e-08 -1.414213e+00 0.000000e+00  2.603286e-07 -4.197940e-07 0.000000e+00  2.000000e+00 9.249818e-09 0.000000e+00  -1.141040e-07 3.141303e-07 0.000000e+00  -1.654587e-08 1.414213e+00 0.000000e+00  -1.184872e-07 1.686210e-07 0.000000e+00  -8.008631e-08 2.189275e-08 0.000000e+00  -3.693423e-01 6.765710e-02 0.000000e+00  -3.750004e-01 -1.250001e-01 0.000000e+00  -1.250847e-07 -5.303300e-01 0.000000e+00  -1.169468e-07 -8.338398e-01 0.000000e+00  -3.644014e-01 -6.028187e-09 0.000000e+00  6.011121e-08 -1.349181e+00 0.000000e+00  2.736606e-01 -4.546717e-01 0.000000e+00  1.543629e+00 -1.202998e-07 0.000000e+00  1.767770e-01 -2.777796e-08 0.000000e+00  2.736607e-01 4.546717e-01 0.000000e+00  -3.750004e-01 1.250002e-01 0.000000e+00  1.263020e-07 1.349181e+00 0.000000e+00  1.543629e+00 1.710726e-07 0.000000e+00  -1.086151e-07 8.338398e-01 0.000000e+00  -3.693423e-01 -6.765712e-02 0.000000e+00  -3.644014e-01 -3.362875e-08 0.000000e+00  -1.030181e-07 -5.303303e-01 0.000000e+00  -3.894915e-01 5.761496e-01 0.000000e+00  -2.027623e-07 -9.375003e-01 0.000000e+00  -6.629131e-01 4.861364e-01 0.000000e+00  -2.690760e-01 3.932121e-01 0.000000e+00  -4.643109e-08 -2.525908e-01 0.000000e+00  -2.372302e-01 1.965144e-01 0.000000e+00  -3.946067e-01 3.147430e-02 0.000000e+00  -1.786088e-01 -7.399506e-01 0.000000e+00  -2.485881e-01 -5.439833e-01 0.000000e+00  -3.595920e-01 4.502193e-02 0.000000e+00  -2.325923e-01 1.964686e-08 0.000000e+00  -2.942024e-01 -1.727885e-01 0.000000e+00  -3.093592e-01 -5.097822e-08 0.000000e+00  -4.825476e-08 -4.375000e-01 0.000000e+00  -2.775341e-01 -3.516309e-01 0.000000e+00  -4.097436e-08 -1.171520e+00 0.000000e+00  -1.614793e-01 -3.490565e-01 0.000000e+00  -4.253071e-01 2.532545e-02 0.000000e+00  -2.932524e-02 -8.794775e-01 0.000000e+00  -1.270004e-08 -1.500455e+00 0.000000e+00  2.138635e-01 -8.601708e-01 0.000000e+00  5.385620e-01 -5.888534e-01 0.000000e+00  6.244564e-08 -8.750000e-01 0.000000e+00  2.245644e-01 -1.648460e-01 0.000000e+00  -6.875005e-01 -7.348333e-08 0.000000e+00  8.568731e-01 -3.474706e-01 0.000000e+00  9.280776e-01 -7.618557e-08 0.000000e+00  1.006539e+00 -1.550422e-01 0.000000e+00  1.046448e+00 -1.361422e-09 0.000000e+00  1.889371e+00 -1.429964e-08 0.000000e+00  -4.253071e-01 -2.532544e-02 0.000000e+00  -6.629132e-01 -4.861362e-01 0.000000e+00  2.245646e-01 1.648460e-01 0.000000e+00  1.006539e+00 1.550423e-01 0.000000e+00  -1.614793e-01 3.490566e-01 0.000000e+00  -1.786088e-01 7.399507e-01 0.000000e+00  -2.932519e-02 8.794774e-01 0.000000e+00  8.568733e-01 3.474706e-01 0.000000e+00  1.889371e+00 3.829964e-08 0.000000e+00  5.385622e-01 5.888534e-01 0.000000e+00  9.280776e-01 1.335837e-07 0.000000e+00  1.080246e-07 8.749999e-01 0.000000e+00  2.138635e-01 8.601708e-01 0.000000e+00  1.318951e-08 1.500455e+00 0.000000e+00  -3.946067e-01 -3.147444e-02 0.000000e+00  -3.894916e-01 -5.761496e-01 0.000000e+00  -2.485881e-01 5.439834e-01 0.000000e+00  -3.291675e-08 1.171520e+00 0.000000e+00  -2.775342e-01 3.516308e-01 0.000000e+00  -2.942024e-01 1.727884e-01 0.000000e+00  -4.523441e-08 4.375000e-01 0.000000e+00  -2.690760e-01 -3.932122e-01 0.000000e+00  -7.383469e-08 -9.375000e-01 0.000000e+00  -3.595920e-01 -4.502194e-02 0.000000e+00  -3.093592e-01 1.218976e-08 0.000000e+00  -2.372302e-01 -1.965144e-01 0.000000e+00  -4.355503e-08 -2.525907e-01 0.000000e+00  -2.325922e-01 -3.222809e-08 0.000000e+00  -4.805759e-01 1.025023e+00 0.000000e+00  -9.843752e-01 9.218747e-01 0.000000e+00  -6.506772e-07 -1.392118e+00 0.000000e+00  -5.239912e-01 6.056288e-01 0.000000e+00  -4.961606e-01 1.714010e-01 0.000000e+00  -4.723483e-01 2.743642e-01 0.000000e+00  -2.603083e-01 8.209628e-01 0.000000e+00  -1.137431e-07 -7.016771e-01 0.000000e+00  -1.821155e-01 6.424333e-01 0.000000e+00  -1.265645e-01 2.382389e-01 0.000000e+00  -1.235069e-01 1.184862e-01 0.000000e+00  -4.431891e-08 -1.252788e-01 0.000000e+00  -2.476600e-01 2.945987e-01 0.000000e+00  -3.266737e-01 1.914172e-01 0.000000e+00  -3.437500e-01 2.460938e-01 0.000000e+00  -1.338176e-01 3.618662e-01 0.000000e+00  -6.747822e-08 -3.854027e-01 0.000000e+00  -1.491711e-01 4.938918e-01 0.000000e+00  -2.212667e-01 -6.438023e-01 0.000000e+00  -1.164863e-01 -9.684423e-01 0.000000e+00  -8.858546e-02 -1.068931e+00 0.000000e+00  -3.353327e-01 -2.507331e-01 0.000000e+00  -3.433542e-01 -1.849653e-01 0.000000e+00  -3.811749e-01 6.076696e-02 0.000000e+00  -3.152855e-01 -3.322747e-01 0.000000e+00  -2.725209e-01 -4.262505e-01 0.000000e+00  -3.992786e-01 -2.961632e-02 0.000000e+00  -3.736658e-01 2.888448e-01 0.000000e+00  -4.192504e-01 3.063107e-01 0.000000e+00  -3.106714e-01 4.907050e-01 0.000000e+00  -2.330507e-01 9.854850e-02 0.000000e+00  -1.228082e-01 2.602212e-08 0.000000e+00  -3.183689e-01 1.307673e-01 0.000000e+00  -3.621733e-01 6.057056e-02 0.000000e+00  -3.157870e-01 6.662486e-02 0.000000e+00  -3.169229e-01 1.259940e-08 0.000000e+00  -3.606564e-01 2.422747e-02 0.000000e+00  -1.840512e-01 -1.517915e-01 0.000000e+00  -2.926818e-08 -2.232766e-01 0.000000e+00  -1.900514e-01 -1.885228e-08 0.000000e+00  -1.776592e-01 -3.000530e-01 0.000000e+00  -7.575018e-08 -6.415810e-01 0.000000e+00  -1.705239e-01 -4.447710e-01 0.000000e+00  -3.017294e-01 -8.614883e-02 0.000000e+00  -3.648600e-01 -3.114673e-08 0.000000e+00  -3.584885e-01 -2.713168e-02 0.000000e+00  -1.366730e-01 -8.505338e-01 0.000000e+00  -4.071756e-08 -1.307983e+00 0.000000e+00  -2.658938e-01 -4.459453e-01 0.000000e+00  -3.468112e-01 -1.331124e-01 0.000000e+00  -1.512339e-01 -7.215917e-01 0.000000e+00  -6.909119e-08 -1.011729e+00 0.000000e+00  -1.620400e-01 -5.856140e-01 0.000000e+00  -3.496270e-01 -9.159576e-02 0.000000e+00  -2.864156e-01 -2.609058e-01 0.000000e+00  -3.533846e-01 -5.709663e-02 0.000000e+00  -6.370259e-01 2.374974e-01 0.000000e+00  -9.690250e-01 3.453856e-01 0.000000e+00  -4.361899e-01 1.681387e-02 0.000000e+00  -2.991902e-01 -2.405759e-01 0.000000e+00  -2.747113e-01 -1.330451e-01 0.000000e+00  -3.482243e-02 -2.395985e-01 0.000000e+00  3.314559e-02 -4.253689e-01 0.000000e+00  -5.107852e-02 -1.143108e+00 0.000000e+00  -2.550660e-08 -1.481660e+00 0.000000e+00  -1.156542e-01 -8.227912e-01 0.000000e+00  -1.964707e-01 -5.215213e-01 0.000000e+00  -2.695674e-03 -1.180118e+00 0.000000e+00  8.447646e-09 -1.459926e+00 0.000000e+00  5.701202e-02 -1.168181e+00 0.000000e+00  2.994920e-01 -7.267626e-01 0.000000e+00  1.555433e-07 -4.920499e-01 0.000000e+00  3.987167e-01 -4.120792e-01 0.000000e+00  2.088938e-01 -9.517508e-01 0.000000e+00  5.788849e-08 -1.157571e+00 0.000000e+00  1.277772e-01 -1.095659e+00 0.000000e+00  3.671626e-01 -7.606672e-01 0.000000e+00  4.791628e-01 -5.860429e-01 0.000000e+00  2.611515e-01 -6.453028e-01 0.000000e+00  -8.129290e-02 -6.009769e-01 0.000000e+00  8.096087e-02 -8.961869e-01 0.000000e+00  7.264944e-02 -6.469518e-01 0.000000e+00  -5.961804e-01 7.992760e-02 0.000000e+00  -1.303728e+00 -6.493033e-08 0.000000e+00  -1.225173e-01 -1.022047e-01 0.000000e+00  2.578125e-01 -2.929688e-01 0.000000e+00  -2.058941e-01 -2.556800e-02 0.000000e+00  -2.423974e-01 -2.933663e-08 0.000000e+00  1.910547e-01 -7.077319e-02 0.000000e+00  7.260681e-01 -3.373968e-01 0.000000e+00  5.058122e-01 -9.261268e-08 0.000000e+00  7.223611e-01 -4.621496e-01 0.000000e+00  5.504226e-01 -4.298946e-01 0.000000e+00  9.874904e-01 -2.682889e-01 0.000000e+00  1.272193e+00 -9.213449e-08 0.000000e+00  1.188839e+00 -2.049317e-01 0.000000e+00  1.493092e+00 -4.625030e-02 0.000000e+00  1.972576e+00 -1.466990e-09 0.000000e+00  1.511696e+00 3.258945e-09 0.000000e+00  1.435888e+00 -9.473628e-02 0.000000e+00  1.747724e+00 -4.753574e-08 0.000000e+00  1.336271e+00 -1.472520e-01 0.000000e+00  1.037038e+00 -7.467936e-02 0.000000e+00  6.028094e-01 -1.989403e-08 0.000000e+00  6.037248e-01 -8.401464e-02 0.000000e+00  5.882541e-01 -2.941590e-01 0.000000e+00  9.490308e-01 -2.452633e-01 0.000000e+00  6.022500e-01 -1.796332e-01 0.000000e+00  -9.690254e-01 -3.453861e-01 0.000000e+00  -9.843752e-01 -9.218748e-01 0.000000e+00  -5.961801e-01 -7.992761e-02 0.000000e+00  -2.058940e-01 2.556792e-02 0.000000e+00  -6.370260e-01 -2.374974e-01 0.000000e+00  -4.961606e-01 -1.714009e-01 0.000000e+00  -4.361898e-01 -1.681392e-02 0.000000e+00  1.037038e+00 7.467936e-02 0.000000e+00  1.493091e+00 4.625032e-02 0.000000e+00  6.037249e-01 8.401466e-02 0.000000e+00  1.910549e-01 7.077320e-02 0.000000e+00  6.022502e-01 1.796333e-01 0.000000e+00  5.882541e-01 2.941590e-01 0.000000e+00  2.578126e-01 2.929688e-01 0.000000e+00  -1.156541e-01 8.227915e-01 0.000000e+00  -5.107852e-02 1.143107e+00 0.000000e+00  -8.858544e-02 1.068931e+00 0.000000e+00  -8.129284e-02 6.009772e-01 0.000000e+00  7.264944e-02 6.469516e-01 0.000000e+00  3.314566e-02 4.253691e-01 0.000000e+00  -1.964708e-01 5.215214e-01 0.000000e+00  -2.725209e-01 4.262506e-01 0.000000e+00  -2.991902e-01 2.405760e-01 0.000000e+00  -1.225173e-01 1.022046e-01 0.000000e+00  -3.482239e-02 2.395985e-01 0.000000e+00  -2.747112e-01 1.330450e-01 0.000000e+00  1.435887e+00 9.473626e-02 0.000000e+00  1.972576e+00 2.955205e-08 0.000000e+00  9.490307e-01 2.452633e-01 0.000000e+00  5.504226e-01 4.298945e-01 0.000000e+00  1.336272e+00 1.472522e-01 0.000000e+00  1.747724e+00 8.875924e-08 0.000000e+00  1.188839e+00 2.049317e-01 0.000000e+00  3.987167e-01 4.120792e-01 0.000000e+00  8.254346e-08 4.920498e-01 0.000000e+00  5.058121e-01 3.233392e-08 0.000000e+00  2.994920e-01 7.267628e-01 0.000000e+00  1.193907e-07 1.157571e+00 0.000000e+00  2.088938e-01 9.517502e-01 0.000000e+00  7.260684e-01 3.373969e-01 0.000000e+00  1.272193e+00 1.346578e-07 0.000000e+00  9.874898e-01 2.682888e-01 0.000000e+00  -2.695662e-03 1.180117e+00 0.000000e+00  1.119408e-09 1.481660e+00 0.000000e+00  8.096094e-02 8.961868e-01 0.000000e+00  2.611515e-01 6.453028e-01 0.000000e+00  5.701212e-02 1.168182e+00 0.000000e+00  5.160574e-08 1.459926e+00 0.000000e+00  1.277772e-01 1.095659e+00 0.000000e+00  4.791629e-01 5.860430e-01 0.000000e+00  3.671625e-01 7.606671e-01 0.000000e+00  7.223611e-01 4.621495e-01 0.000000e+00  -5.239912e-01 -6.056289e-01 0.000000e+00  -4.805759e-01 -1.025022e+00 0.000000e+00  -4.723485e-01 -2.743642e-01 0.000000e+00  -3.992786e-01 2.961621e-02 0.000000e+00  -4.192506e-01 -3.063108e-01 0.000000e+00  -3.736658e-01 -2.888447e-01 0.000000e+00  -3.811748e-01 -6.076704e-02 0.000000e+00  -1.164863e-01 9.684424e-01 0.000000e+00  -2.938887e-08 1.307983e+00 0.000000e+00  -2.212667e-01 6.438019e-01 0.000000e+00  -3.152853e-01 3.322747e-01 0.000000e+00  -1.366730e-01 8.505341e-01 0.000000e+00  -6.322708e-08 1.011729e+00 0.000000e+00  -1.512338e-01 7.215912e-01 0.000000e+00  -1.776592e-01 3.000529e-01 0.000000e+00  -7.900441e-08 2.232766e-01 0.000000e+00  -1.840512e-01 1.517914e-01 0.000000e+00  -1.705239e-01 4.447713e-01 0.000000e+00  -6.804035e-08 6.415810e-01 0.000000e+00  -1.620400e-01 5.856140e-01 0.000000e+00  -2.864158e-01 2.609058e-01 0.000000e+00  -3.496270e-01 9.159574e-02 0.000000e+00  -3.468112e-01 1.331123e-01 0.000000e+00  -3.353325e-01 2.507330e-01 0.000000e+00  -2.658938e-01 4.459454e-01 0.000000e+00  -3.433542e-01 1.849654e-01 0.000000e+00  -2.603082e-01 -8.209628e-01 0.000000e+00  -5.101829e-07 -1.392116e+00 0.000000e+00  -3.106715e-01 -4.907049e-01 0.000000e+00  -3.437501e-01 -2.460939e-01 0.000000e+00  -1.821156e-01 -6.424337e-01 0.000000e+00  -7.245503e-08 -7.016766e-01 0.000000e+00  -1.491710e-01 -4.938918e-01 0.000000e+00  -3.017293e-01 8.614880e-02 0.000000e+00  -1.900514e-01 2.519325e-08 0.000000e+00  -3.533846e-01 5.709660e-02 0.000000e+00  -3.621734e-01 -6.057055e-02 0.000000e+00  -3.584887e-01 2.713164e-02 0.000000e+00  -3.648601e-01 -7.658820e-09 0.000000e+00  -3.606564e-01 -2.422748e-02 0.000000e+00  -1.235069e-01 -1.184862e-01 0.000000e+00  -1.228081e-01 -2.536155e-08 0.000000e+00  -1.324396e-08 -1.252787e-01 0.000000e+00  -2.330508e-01 -9.854853e-02 0.000000e+00  -3.169229e-01 -3.829362e-08 0.000000e+00  -3.157868e-01 -6.662487e-02 0.000000e+00  -1.265645e-01 -2.382390e-01 0.000000e+00  -5.925413e-08 -3.854026e-01 0.000000e+00  -1.338176e-01 -3.618660e-01 0.000000e+00  -3.266737e-01 -1.914171e-01 0.000000e+00  -3.183688e-01 -1.307673e-01 0.000000e+00  -2.476599e-01 -2.945987e-01 0.000000e+00  -6.527426e-01 1.527493e+00 0.000000e+00  1.674737e-06 -1.992189e+00 0.000000e+00  -1.408689e+00 1.386592e+00 0.000000e+00  -3.226958e-01 1.265789e+00 0.000000e+00  -4.098536e-08 -1.114106e+00 0.000000e+00  -1.997417e-01 1.058358e+00 0.000000e+00  -7.136475e-01 1.066634e+00 0.000000e+00  -7.877914e-01 6.729718e-01 0.000000e+00  -6.633666e-01 7.797766e-01 0.000000e+00  -4.915028e-01 2.319220e-01 0.000000e+00  -4.409357e-01 7.800746e-02 0.000000e+00  -4.322113e-01 2.296779e-02 0.000000e+00  -5.025503e-01 4.338076e-01 0.000000e+00  -4.559255e-01 4.481310e-01 0.000000e+00  -4.497068e-01 6.030270e-01 0.000000e+00  -5.450771e-01 3.928297e-01 0.000000e+00  -5.706923e-01 3.236394e-01 0.000000e+00  -6.026606e-01 5.693919e-01 0.000000e+00  -9.524810e-02 6.863367e-01 0.000000e+00  -8.401767e-02 5.994973e-01 0.000000e+00  -1.453035e-08 -6.112394e-01 0.000000e+00  -2.122654e-01 7.269691e-01 0.000000e+00  -2.896570e-01 6.403974e-01 0.000000e+00  -3.411236e-01 7.053801e-01 0.000000e+00  -1.130752e-01 7.859352e-01 0.000000e+00  -3.355236e-08 -8.070813e-01 0.000000e+00  -1.432742e-01 9.056313e-01 0.000000e+00  -4.172112e-01 7.638054e-01 0.000000e+00  -3.406718e-01 9.242662e-01 0.000000e+00  -5.260633e-01 7.993171e-01 0.000000e+00  -6.264059e-02 1.235734e-01 0.000000e+00  6.645019e-09 -6.253254e-02 0.000000e+00  -6.231606e-02 6.169653e-02 0.000000e+00  -6.327082e-02 1.858885e-01 0.000000e+00  -9.823658e-09 -1.885116e-01 0.000000e+00  -6.430669e-02 2.489804e-01 0.000000e+00  -1.246551e-01 1.780729e-01 0.000000e+00  -1.823235e-01 1.652184e-01 0.000000e+00  -1.848088e-01 2.206210e-01 0.000000e+00  -3.338778e-01 2.197573e-01 0.000000e+00  -3.626620e-01 1.600960e-01 0.000000e+00  -3.554654e-01 1.458060e-01 0.000000e+00  -3.007065e-01 2.862180e-01 0.000000e+00  -3.125012e-01 3.243668e-01 0.000000e+00  -2.565618e-01 3.438535e-01 0.000000e+00  -2.921908e-01 2.469515e-01 0.000000e+00  -2.862165e-01 2.069435e-01 0.000000e+00  -2.414382e-01 2.454997e-01 0.000000e+00  -7.164692e-02 4.483114e-01 0.000000e+00  -7.663374e-02 5.210629e-01 0.000000e+00  -1.392799e-08 -4.557292e-01 0.000000e+00  -1.400918e-01 4.264326e-01 0.000000e+00  -2.141438e-01 4.505124e-01 0.000000e+00  -2.024850e-01 3.911277e-01 0.000000e+00  -6.823212e-02 3.794606e-01 0.000000e+00  -2.480719e-08 -3.180004e-01 0.000000e+00  -6.589088e-02 3.133005e-01 0.000000e+00  -1.943187e-01 3.332648e-01 0.000000e+00  -1.294937e-01 2.993447e-01 0.000000e+00  -1.886512e-01 2.765418e-01 0.000000e+00  -1.036286e-01 -1.021364e+00 0.000000e+00  -4.421719e-02 -1.239507e+00 0.000000e+00  -5.253108e-02 -1.191384e+00 0.000000e+00  -1.534511e-01 -8.552311e-01 0.000000e+00  -1.332977e-01 -9.024406e-01 0.000000e+00  -2.021929e-01 -6.928412e-01 0.000000e+00  -1.702809e-01 -8.043344e-01 0.000000e+00  -1.842216e-01 -7.508095e-01 0.000000e+00  -2.365009e-01 -5.939134e-01 0.000000e+00  -3.674784e-01 -6.011531e-02 0.000000e+00  -3.747521e-01 6.641870e-02 0.000000e+00  -3.656837e-01 -4.327677e-02 0.000000e+00  -3.687852e-01 -8.158835e-02 0.000000e+00  -3.881111e-01 4.954313e-02 0.000000e+00  -3.686795e-01 -1.084476e-01 0.000000e+00  -3.402879e-01 -2.159174e-01 0.000000e+00  -3.032859e-01 -3.535366e-01 0.000000e+00  -2.951848e-01 -3.958039e-01 0.000000e+00  -3.446933e-01 -2.250248e-01 0.000000e+00  -3.922923e-01 -7.345555e-02 0.000000e+00  -3.222491e-01 -2.743720e-01 0.000000e+00  -3.585183e-01 -1.802671e-01 0.000000e+00  -3.990880e-01 5.358353e-03 0.000000e+00  -3.658349e-01 -1.412733e-01 0.000000e+00  -2.974649e-01 -3.782158e-01 0.000000e+00  -2.248602e-01 -5.813051e-01 0.000000e+00  -2.500957e-01 -5.339598e-01 0.000000e+00  -3.274279e-01 -2.895738e-01 0.000000e+00  -2.695633e-01 -4.865816e-01 0.000000e+00  -2.842567e-01 -4.402839e-01 0.000000e+00  -3.720192e-01 1.709989e-01 0.000000e+00  -3.568375e-01 2.695611e-01 0.000000e+00  -3.285137e-01 3.607145e-01 0.000000e+00  -3.836157e-01 1.773198e-01 0.000000e+00  -3.972245e-01 1.774839e-01 0.000000e+00  -4.374090e-01 1.211488e-01 0.000000e+00  -4.463159e-01 2.983160e-01 0.000000e+00  -4.132759e-01 4.420563e-01 0.000000e+00  -4.264125e-01 1.513880e-01 0.000000e+00  -4.120540e-01 1.695490e-01 0.000000e+00  -1.624193e-01 5.653838e-01 0.000000e+00  -2.547571e-01 5.752046e-01 0.000000e+00  -3.440109e-01 5.364509e-01 0.000000e+00  -2.307954e-01 5.117961e-01 0.000000e+00  -2.865066e-01 4.424041e-01 0.000000e+00  -3.778275e-01 4.223045e-01 0.000000e+00  -3.498817e-01 3.940527e-01 0.000000e+00  -3.945535e-01 3.020011e-01 0.000000e+00  -1.229356e-01 5.920050e-02 0.000000e+00  -6.222561e-02 1.796328e-08 0.000000e+00  -1.808638e-01 1.101010e-01 0.000000e+00  -2.345519e-01 1.475608e-01 0.000000e+00  -1.801899e-01 5.507945e-02 0.000000e+00  -1.801253e-01 8.585663e-09 0.000000e+00  -2.324632e-01 4.938834e-02 0.000000e+00  -3.502130e-01 1.290004e-01 0.000000e+00  -3.651417e-01 6.545078e-02 0.000000e+00  -3.216429e-01 1.616335e-01 0.000000e+00  -2.822157e-01 1.663920e-01 0.000000e+00  -3.466428e-01 1.103018e-01 0.000000e+00  -3.603620e-01 5.361065e-02 0.000000e+00  -3.444966e-01 9.015042e-02 0.000000e+00  -3.444159e-01 2.364897e-02 0.000000e+00  -3.622473e-01 1.246552e-02 0.000000e+00  -3.459343e-01 1.376786e-09 0.000000e+00  -3.435702e-01 4.663759e-02 0.000000e+00  -3.597322e-01 3.514294e-02 0.000000e+00  -3.435400e-01 6.885621e-02 0.000000e+00  -3.159835e-01 3.358906e-02 0.000000e+00  -2.786797e-01 3.364930e-09 0.000000e+00  -2.782128e-01 4.219782e-02 0.000000e+00  -2.797561e-01 1.253952e-01 0.000000e+00  -3.165083e-01 9.904857e-02 0.000000e+00  -2.785063e-01 8.399391e-02 0.000000e+00  -1.024842e-01 -9.416461e-02 0.000000e+00  -1.042719e-01 -4.223536e-08 0.000000e+00  -4.386179e-08 -1.127192e-01 0.000000e+00  -1.870854e-01 -7.634259e-02 0.000000e+00  -2.581340e-01 -2.775165e-08 0.000000e+00  -2.545135e-01 -5.929414e-02 0.000000e+00  -1.006368e-01 -1.868442e-01 0.000000e+00  -1.209833e-08 -3.315771e-01 0.000000e+00  -9.871249e-02 -2.779989e-01 0.000000e+00  -9.221605e-02 -5.416334e-01 0.000000e+00  -8.968499e-02 -6.258693e-01 0.000000e+00  -1.067292e-08 -7.393245e-01 0.000000e+00  -1.742149e-01 -3.728648e-01 0.000000e+00  -2.393801e-01 -2.931762e-01 0.000000e+00  -2.433458e-01 -2.350726e-01 0.000000e+00  -9.453503e-02 -4.554858e-01 0.000000e+00  -2.381553e-08 -5.408971e-01 0.000000e+00  -9.668825e-02 -3.675724e-01 0.000000e+00  -3.615290e-01 -1.329305e-02 0.000000e+00  -3.683107e-01 1.245613e-04 0.000000e+00  -3.710951e-01 -7.495142e-09 0.000000e+00  -3.373523e-01 -5.575388e-02 0.000000e+00  -3.339577e-01 -8.425879e-02 0.000000e+00  -2.979676e-01 -1.293503e-01 0.000000e+00  -3.409059e-01 -2.771252e-02 0.000000e+00  -3.446190e-01 -1.648816e-08 0.000000e+00  -3.055201e-01 -4.306637e-02 0.000000e+00  -2.471539e-01 -1.767673e-01 0.000000e+00  -2.508627e-01 -1.181961e-01 0.000000e+00  -1.809213e-01 -2.263594e-01 0.000000e+00  -5.976373e-02 -1.136291e+00 0.000000e+00  -3.851765e-09 -1.365378e+00 0.000000e+00  -1.274124e-01 -9.112052e-01 0.000000e+00  -1.957246e-01 -6.955039e-01 0.000000e+00  -6.602793e-02 -1.075256e+00 0.000000e+00  -9.771724e-09 -1.243060e+00 0.000000e+00  -7.144254e-02 -1.009182e+00 0.000000e+00  -3.453367e-01 -1.575147e-01 0.000000e+00  -3.639906e-01 -3.029699e-02 0.000000e+00  -3.093697e-01 -3.136037e-01 0.000000e+00  -2.581879e-01 -4.945535e-01 0.000000e+00  -3.140932e-01 -2.759326e-01 0.000000e+00  -3.179601e-01 -2.403308e-01 0.000000e+00  -2.722067e-01 -3.982989e-01 0.000000e+00  -8.374863e-02 -7.877731e-01 0.000000e+00  -8.688537e-02 -7.080003e-01 0.000000e+00  -1.475042e-08 -9.247838e-01 0.000000e+00  -1.570053e-01 -6.543112e-01 0.000000e+00  -2.255673e-01 -4.667813e-01 0.000000e+00  -2.198235e-01 -5.244603e-01 0.000000e+00  -8.019345e-02 -8.648570e-01 0.000