<?xml version="1.0"?>
<VTKFile type="UnstructuredGrid"  version="0.1"  >
<UnstructuredGrid>
<Piece  NumberOfPoints="1105" NumberOfCells="2048">
<Points>
<DataArray  type="Float32"  NumberOfComponents="3"  format="ascii">0 0 0  1 0 0  1 1 0  0 1 0  -1 1 0  -1 0 0  -1 -1 0  0 -1 0  1 -1 0  1 0 0  0.5 0.5 0  0 0.5 0  0.5 0 0  0.5 1 0  1 0.5 0  -0.5 1 0  -0.5 0.5 0  -1 0.5 0  -0.5 0 0  -0.5 -0.5 0  0 -0.5 0  -0.5 -1 0  -1 -0.5 0  0.5 -1 0  0.5 -0.5 0  1 -0.5 0  0.5 0 0  0.25 0.25 0  0.25 0 0  0 0.25 0  0.5 0.25 0  0.75 0 0  0.75 0.25 0  0.25 0.5 0  0 0.75 0  0.25 0.75 0  0.75 0.5 0  1 0.25 0  0.75 0.75 0  1 0.75 0  0.75 1 0  0.5 0.75 0  0.25 1 0  -0.25 0.5 0  -0.25 0.25 0  -0.25 0.75 0  -0.25 1 0  -0.5 0.75 0  -0.75 0.75 0  -0.75 1 0  -0.5 0.25 0  -0.25 0 0  -0.75 0.5 0  -1 0.75 0  -0.75 0.25 0  -0.75 0 0  -1 0.25 0  -0.25 -0.25 0  0 -0.25 0  -0.5 -0.25 0  -0.75 -0.25 0  -0.25 -0.5 0  0 -0.75 0  -0.25 -0.75 0  -0.75 -0.5 0  -1 -0.25 0  -0.75 -0.75 0  -1 -0.75 0  -0.75 -1 0  -0.5 -0.75 0  -0.25 -1 0  0.25 -0.5 0  0.25 -0.25 0  0.25 -0.75 0  0.25 -1 0  0.5 -0.75 0  0.75 -0.75 0  0.75 -1 0  0.5 -0.25 0  0.25 0 0  0.75 -0.5 0  1 -0.75 0  0.75 -0.25 0  0.75 0 0  1 -0.25 0  0.125 0.125 0  0 0.125 0  0.125 0 0  0.125 0.25 0  0 0.375 0  0.125 0.375 0  0.25 0.125 0  0.375 0 0  0.375 0.125 0  0.75 0.125 0  0.875 0.125 0  0.875 0 0  0.625 0.25 0  0.625 0.375 0  0.5 0.375 0  0.625 0.125 0  0.625 0 0  0.5 0.125 0  0.125 0.75 0  0.125 0.875 0  0 0.875 0  0.25 0.625 0  0.375 0.625 0  0.375 0.5 0  0.125 0.625 0  0 0.625 0  0.125 0.5 0  0.375 0.375 0  0.25 0.375 0  0.375 0.25 0  0.875 0.25 0  1 0.125 0  0.75 0.375 0  0.625 0.5 0  0.875 0.375 0  1 0.375 0  0.875 0.5 0  0.875 0.875 0  0.875 1 0  1 0.875 0  0.75 0.875 0  0.625 1 0  0.625 0.875 0  0.875 0.75 0  1 0.625 0  0.875 0.625 0  0.25 0.875 0  0.125 1 0  0.375 0.75 0  0.5 0.625 0  0.375 0.875 0  0.375 1 0  0.5 0.875 0  0.625 0.625 0  0.625 0.75 0  0.75 0.625 0  -0.125 0.25 0  -0.125 0.125 0  -0.125 0.375 0  -0.125 0.5 0  -0.25 0.375 0  -0.375 0.375 0  -0.375 0.5 0  -0.125 0.875 0  -0.125 1 0  -0.125 0.75 0  -0.125 0.625 0  -0.25 0.875 0  -0.375 1 0  -0.375 0.875 0  -0.75 0.875 0  -0.875 1 0  -0.875 0.875 0  -0.625 0.875 0  -0.625 1 0  -0.5 0.875 0  -0.625 0.75 0  -0.625 0.625 0  -0.5 0.625 0  -0.25 0.625 0  -0.375 0.75 0  -0.375 0.625 0  -0.25 0.125 0  -0.125 0 0  -0.375 0.25 0  -0.5 0.375 0  -0.375 0.125 0  -0.375 0 0  -0.5 0.125 0  -0.875 0.75 0  -1 0.875 0  -0.75 0.625 0  -0.625 0.5 0  -0.875 0.625 0  -1 0.625 0  -0.875 0.5 0  -0.875 0.125 0  -1 0.125 0  -0.875 0 0  -0.875 0.25 0  -1 0.375 0  -0.875 0.375 0  -0.75 0.125 0  -0.625 0 0  -0.625 0.125 0  -0.625 0.375 0  -0.75 0.375 0  -0.625 0.25 0  -0.125 -0.125 0  0 -0.125 0  -0.25 -0.125 0  -0.375 -0.125 0  -0.125 -0.25 0  0 -0.375 0  -0.125 -0.375 0  -0.75 -0.125 0  -0.875 -0.125 0  -0.625 -0.125 0  -0.5 -0.125 0  -0.625 -0.25 0  -0.625 -0.375 0  -0.5 -0.375 0  -0.125 -0.75 0  -0.125 -0.875 0  0 -0.875 0  -0.25 -0.625 0  -0.375 -0.625 0  -0.375 -0.5 0  -0.125 -0.625 0  0 -0.625 0  -0.125 -0.5 0  -0.375 -0.25 0  -0.375 -0.375 0  -0.25 -0.375 0  -0.875 -0.25 0  -1 -0.125 0  -0.75 -0.375 0  -0.625 -0.5 0  -0.875 -0.375 0  -1 -0.375 0  -0.875 -0.5 0  -0.875 -0.875 0  -0.875 -1 0  -1 -0.875 0  -0.75 -0.875 0  -0.625 -1 0  -0.625 -0.875 0  -0.875 -0.75 0  -1 -0.625 0  -0.875 -0.625 0  -0.25 -0.875 0  -0.125 -1 0  -0.375 -0.75 0  -0.5 -0.625 0  -0.375 -0.875 0  -0.375 -1 0  -0.5 -0.875 0  -0.625 -0.625 0  -0.625 -0.75 0  -0.75 -0.625 0  0.125 -0.25 0  0.125 -0.125 0  0.125 -0.375 0  0.125 -0.5 0  0.25 -0.375 0  0.375 -0.375 0  0.375 -0.5 0  0.125 -0.875 0  0.125 -1 0  0.125 -0.75 0  0.125 -0.625 0  0.25 -0.875 0  0.375 -1 0  0.375 -0.875 0  0.75 -0.875 0  0.875 -1 0  0.875 -0.875 0  0.625 -0.875 0  0.625 -1 0  0.5 -0.875 0  0.625 -0.75 0  0.625 -0.625 0  0.5 -0.625 0  0.25 -0.625 0  0.375 -0.75 0  0.375 -0.625 0  0.25 -0.125 0  0.125 0 0  0.375 -0.25 0  0.5 -0.375 0  0.375 -0.125 0  0.375 0 0  0.5 -0.125 0  0.875 -0.75 0  1 -0.875 0  0.75 -0.625 0  0.625 -0.5 0  0.875 -0.625 0  1 -0.625 0  0.875 -0.5 0  0.875 -0.125 0  1 -0.125 0  0.875 0 0  0.875 -0.25 0  1 -0.375 0  0.875 -0.375 0  0.75 -0.125 0  0.625 0 0  0.625 -0.125 0  0.625 -0.375 0  0.75 -0.375 0  0.625 -0.25 0  0.0625 0.0625 0  0.0625 0 0  0 0.0625 0  0.125 0.0625 0  0.1875 0 0  0.1875 0.0625 0  0.0625 0.125 0  0 0.1875 0  0.0625 0.1875 0  0.0625 0.375 0  0.0625 0.4375 0  0 0.4375 0  0.125 0.3125 0  0.1875 0.3125 0  0.1875 0.25 0  0.0625 0.3125 0  0 0.3125 0  0.0625 0.25 0  0.375 0.0625 0  0.4375 0.0625 0  0.4375 0 0  0.3125 0.125 0  0.3125 0.1875 0  0.25 0.1875 0  0.3125 0.0625 0  0.3125 0 0  0.25 0.0625 0  0.1875 0.1875 0  0.1875 0.125 0  0.125 0.1875 0  0.875 0.0625 0  0.9375 0 0  0.9375 0.0625 0  0.8125 0.0625 0  0.8125 0 0  0.75 0.0625 0  0.8125 0.125 0  0.8125 0.1875 0  0.75 0.1875 0  0.5625 0.375 0  0.5 0.4375 0  0.5625 0.4375 0  0.5625 0.3125 0  0.5 0.3125 0  0.5625 0.25 0  0.625 0.3125 0  0.6875 0.3125 0  0.6875 0.25 0  0.5625 0.0625 0  0.5 0.0625 0  0.5625 0 0  0.5625 0.125 0  0.5 0.1875 0  0.5625 0.1875 0  0.625 0.0625 0  0.6875 0 0  0.6875 0.0625 0  0.625 0.1875 0  0.6875 0.125 0  0.6875 0.1875 0  0.0625 0.875 0  0 0.9375 0  0.0625 0.9375 0  0.0625 0.8125 0  0 0.8125 0  0.0625 0.75 0  0.125 0.8125 0  0.1875 0.8125 0  0.1875 0.75 0  0.375 0.5625 0  0.4375 0.5 0  0.4375 0.5625 0  0.3125 0.5625 0  0.3125 0.5 0  0.25 0.5625 0  0.3125 0.625 0  0.3125 0.6875 0  0.25 0.6875 0  0.0625 0.5625 0  0.0625 0.5 0  0 0.5625 0  0.125 0.5625 0  0.1875 0.5 0  0.1875 0.5625 0  0.0625 0.625 0  0 0.6875 0  0.0625 0.6875 0  0.1875 0.625 0  0.125 0.6875 0  0.1875 0.6875 0  0.4375 0.4375 0  0.4375 0.375 0  0.4375 0.3125 0  0.375 0.4375 0  0.3125 0.4375 0  0.125 0.4375 0  0.1875 0.375 0  0.25 0.3125 0  0.1875 0.4375 0  0.25 0.4375 0  0.4375 0.125 0  0.375 0.1875 0  0.3125 0.25 0  0.4375 0.1875 0  0.4375 0.25 0  0.3125 0.3125 0  0.375 0.3125 0  0.3125 0.375 0  0.9375 0.125 0  1 0.0625 0  0.875 0.1875 0  0.8125 0.25 0  0.9375 0.1875 0  1 0.1875 0  0.9375 0.25 0  0.625 0.4375 0  0.5625 0.5 0  0.6875 0.375 0  0.75 0.3125 0  0.6875 0.4375 0  0.6875 0.5 0  0.75 0.4375 0  0.9375 0.4375 0  0.9375 0.5 0  1 0.4375 0  0.875 0.4375 0  0.8125 0.5 0  0.8125 0.4375 0  0.9375 0.375 0  1 0.3125 0  0.9375 0.3125 0  0.8125 0.3125 0  0.8125 0.375 0  0.875 0.3125 0  0.9375 0.9375 0  1 0.9375 0  0.9375 1 0  0.9375 0.875 0  1 0.8125 0  0.9375 0.8125 0  0.875 0.9375 0  0.8125 1 0  0.8125 0.9375 0  0.625 0.9375 0  0.5625 0.9375 0  0.5625 1 0  0.6875 0.875 0  0.6875 0.8125 0  0.75 0.8125 0  0.6875 0.9375 0  0.6875 1 0  0.75 0.9375 0  0.9375 0.625 0  0.9375 0.5625 0  1 0.5625 0  0.875 0.6875 0  0.8125 0.6875 0  0.8125 0.75 0  0.9375 0.6875 0  1 0.6875 0  0.9375 0.75 0  0.8125 0.8125 0  0.875 0.8125 0  0.8125 0.875 0  0.125 0.9375 0  0.0625 1 0  0.1875 0.875 0  0.25 0.8125 0  0.1875 0.9375 0  0.1875 1 0  0.25 0.9375 0  0.4375 0.625 0  0.5 0.5625 0  0.375 0.6875 0  0.3125 0.75 0  0.4375 0.6875 0  0.5 0.6875 0  0.4375 0.75 0  0.4375 0.9375 0  0.5 0.9375 0  0.4375 1 0  0.4375 0.875 0  0.5 0.8125 0  0.4375 0.8125 0  0.375 0.9375 0  0.3125 1 0  0.3125 0.9375 0  0.3125 0.8125 0  0.375 0.8125 0  0.3125 0.875 0  0.5625 0.5625 0  0.625 0.5625 0  0.6875 0.5625 0  0.5625 0.625 0  0.5625 0.6875 0  0.5625 0.875 0  0.625 0.8125 0  0.6875 0.75 0  0.5625 0.8125 0  0.5625 0.75 0  0.875 0.5625 0  0.8125 0.5625 0  0.75 0.5625 0  0.8125 0.625 0  0.75 0.6875 0  0.6875 0.625 0  0.6875 0.6875 0  0.625 0.6875 0  -0.0625 0.125 0  -0.0625 0.0625 0  -0.0625 0.1875 0  -0.0625 0.25 0  -0.125 0.1875 0  -0.1875 0.1875 0  -0.1875 0.25 0  -0.0625 0.4375 0  -0.0625 0.5 0  -0.0625 0.375 0  -0.0625 0.3125 0  -0.125 0.4375 0  -0.1875 0.5 0  -0.1875 0.4375 0  -0.375 0.4375 0  -0.4375 0.5 0  -0.4375 0.4375 0  -0.3125 0.4375 0  -0.3125 0.5 0  -0.25 0.4375 0  -0.3125 0.375 0  -0.3125 0.3125 0  -0.25 0.3125 0  -0.125 0.3125 0  -0.1875 0.375 0  -0.1875 0.3125 0  -0.0625 0.9375 0  -0.0625 1 0  -0.0625 0.875 0  -0.0625 0.8125 0  -0.125 0.9375 0  -0.1875 1 0  -0.1875 0.9375 0  -0.0625 0.625 0  -0.0625 0.5625 0  -0.0625 0.6875 0  -0.0625 0.75 0  -0.125 0.6875 0  -0.1875 0.6875 0  -0.1875 0.75 0  -0.375 0.9375 0  -0.4375 0.9375 0  -0.4375 1 0  -0.3125 0.875 0  -0.3125 0.8125 0  -0.25 0.8125 0  -0.3125 0.9375 0  -0.3125 1 0  -0.25 0.9375 0  -0.125 0.8125 0  -0.1875 0.8125 0  -0.1875 0.875 0  -0.875 0.9375 0  -0.9375 0.9375 0  -0.9375 1 0  -0.8125 0.875 0  -0.8125 0.8125 0  -0.75 0.8125 0  -0.8125 0.9375 0  -0.8125 1 0  -0.75 0.9375 0  -0.5625 0.9375 0  -0.5 0.9375 0  -0.5625 1 0  -0.5625 0.875 0  -0.5 0.8125 0  -0.5625 0.8125 0  -0.625 0.9375 0  -0.6875 1 0  -0.6875 0.9375 0  -0.5625 0.625 0  -0.5 0.5625 0  -0.5625 0.5625 0  -0.5625 0.6875 0  -0.5 0.6875 0  -0.5625 0.75 0  -0.625 0.6875 0  -0.6875 0.6875 0  -0.6875 0.75 0  -0.625 0.8125 0  -0.6875 0.8125 0  -0.6875 0.875 0  -0.125 0.5625 0  -0.1875 0.5625 0  -0.25 0.5625 0  -0.1875 0.625 0  -0.25 0.6875 0  -0.4375 0.875 0  -0.375 0.8125 0  -0.3125 0.75 0  -0.4375 0.8125 0  -0.4375 0.75 0  -0.4375 0.5625 0  -0.375 0.5625 0  -0.3125 0.5625 0  -0.4375 0.625 0  -0.4375 0.6875 0  -0.3125 0.625 0  -0.3125 0.6875 0  -0.375 0.6875 0  -0.125 0.0625 0  -0.0625 0 0  -0.1875 0.125 0  -0.25 0.1875 0  -0.1875 0.0625 0  -0.1875 0 0  -0.25 0.0625 0  -0.4375 0.375 0  -0.5 0.4375 0  -0.375 0.3125 0  -0.3125 0.25 0  -0.4375 0.3125 0  -0.5 0.3125 0  -0.4375 0.25 0  -0.4375 0.0625 0  -0.5 0.0625 0  -0.4375 0 0  -0.4375 0.125 0  -0.5 0.1875 0  -0.4375 0.1875 0  -0.375 0.0625 0  -0.3125 0 0  -0.3125 0.0625 0  -0.3125 0.1875 0  -0.375 0.1875 0  -0.3125 0.125 0  -0.9375 0.875 0  -1 0.9375 0  -0.875 0.8125 0  -0.8125 0.75 0  -0.9375 0.8125 0  -1 0.8125 0  -0.9375 0.75 0  -0.625 0.5625 0  -0.5625 0.5 0  -0.6875 0.625 0  -0.75 0.6875 0  -0.6875 0.5625 0  -0.6875 0.5 0  -0.75 0.5625 0  -0.9375 0.5625 0  -0.9375 0.5 0  -1 0.5625 0  -0.875 0.5625 0  -0.8125 0.5 0  -0.8125 0.5625 0  -0.9375 0.625 0  -1 0.6875 0  -0.9375 0.6875 0  -0.8125 0.6875 0  -0.8125 0.625 0  -0.875 0.6875 0  -0.9375 0.0625 0  -0.9375 0 0  -1 0.0625 0  -0.875 0.0625 0  
[...]
<PointData  Vectors="u"> 
<DataArray  type="Float32"  Name="u"  NumberOfComponents="3" format="ascii">-8.503523e-08 -3.503252e-08 0.000000e+00  1.180832e-10 -3.549287e-09 0.000000e+00  -7.941505e-09 -1.013173e-08 0.000000e+00  8.832873e-09 -1.414214e+00 0.000000e+00  3.667104e-08 -1.372396e-08 0.000000e+00  2.000000e+00 6.145062e-09 0.000000e+00  6.465448e-09 2.637077e-08 0.000000e+00  1.064349e-08 1.414214e+00 0.000000e+00  -1.389557e-08 7.270217e-09 0.000000e+00  -8.188675e-09 -2.639632e-09 0.000000e+00  -3.693419e-01 6.765706e-02 0.000000e+00  -3.750000e-01 -1.250000e-01 0.000000e+00  -2.083176e-08 -5.303300e-01 0.000000e+00  -3.053324e-09 -8.338395e-01 0.000000e+00  -3.644012e-01 1.582878e-10 0.000000e+00  1.654784e-08 -1.349181e+00 0.000000e+00  2.736603e-01 -4.546712e-01 0.000000e+00  1.543628e+00 -6.144980e-09 0.000000e+00  1.767767e-01 4.571193e-09 0.000000e+00  2.736603e-01 4.546712e-01 0.000000e+00  -3.750000e-01 1.250000e-01 0.000000e+00  1.761040e-08 1.349181e+00 0.000000e+00  1.543628e+00 -1.270999e-08 0.000000e+00  -1.258118e-08 8.338395e-01 0.000000e+00  -3.693419e-01 -6.765704e-02 0.000000e+00  -3.644012e-01 -1.248121e-09 0.000000e+00  -1.535555e-08 -5.303301e-01 0.000000e+00  -3.894912e-01 5.761491e-01 0.000000e+00  -3.648770e-08 -9.374999e-01 0.000000e+00  -6.629126e-01 4.861359e-01 0.000000e+00  -2.690758e-01 3.932118e-01 0.000000e+00  -8.229248e-09 -2.525907e-01 0.000000e+00  -2.372300e-01 1.965142e-01 0.000000e+00  -3.946064e-01 3.147438e-02 0.000000e+00  -1.786086e-01 -7.399500e-01 0.000000e+00  -2.485879e-01 -5.439829e-01 0.000000e+00  -3.595917e-01 4.502191e-02 0.000000e+00  -2.325923e-01 -1.256245e-09 0.000000e+00  -2.942021e-01 -1.727883e-01 0.000000e+00  -3.093592e-01 -6.765965e-09 0.000000e+00  4.761804e-09 -4.375000e-01 0.000000e+00  -2.775339e-01 -3.516306e-01 0.000000e+00  -4.274651e-09 -1.171520e+00 0.000000e+00  -1.614792e-01 -3.490562e-01 0.000000e+00  -4.253067e-01 2.532543e-02 0.000000e+00  -2.932517e-02 -8.794768e-01 0.000000e+00  -6.043795e-10 -1.500455e+00 0.000000e+00  2.138633e-01 -8.601700e-01 0.000000e+00  5.385617e-01 -5.888530e-01 0.000000e+00  -2.987008e-09 -8.750000e-01 0.000000e+00  2.245643e-01 -1.648458e-01 0.000000e+00  -6.875000e-01 1.839489e-08 0.000000e+00  8.568725e-01 -3.474704e-01 0.000000e+00  9.280776e-01 2.777946e-09 0.000000e+00  1.006538e+00 -1.550421e-01 0.000000e+00  1.046447e+00 3.552818e-09 0.000000e+00  1.889371e+00 -5.405903e-09 0.000000e+00  -4.253068e-01 -2.532541e-02 0.000000e+00  -6.629126e-01 -4.861359e-01 0.000000e+00  2.245643e-01 1.648459e-01 0.000000e+00  1.006538e+00 1.550421e-01 0.000000e+00  -1.614791e-01 3.490562e-01 0.000000e+00  -1.786086e-01 7.399500e-01 0.000000e+00  -2.932519e-02 8.794767e-01 0.000000e+00  8.568725e-01 3.474704e-01 0.000000e+00  1.889371e+00 1.379392e-08 0.000000e+00  5.385616e-01 5.888529e-01 0.000000e+00  9.280777e-01 1.064345e-08 0.000000e+00  -1.004106e-08 8.750000e-01 0.000000e+00  2.138633e-01 8.601701e-01 0.000000e+00  1.163519e-08 1.500455e+00 0.000000e+00  -3.946064e-01 -3.147438e-02 0.000000e+00  -3.894912e-01 -5.761491e-01 0.000000e+00  -2.485879e-01 5.439829e-01 0.000000e+00  -9.733314e-09 1.171520e+00 0.000000e+00  -2.775340e-01 3.516305e-01 0.000000e+00  -2.942022e-01 1.727883e-01 0.000000e+00  -4.584804e-09 4.375000e-01 0.000000e+00  -2.690758e-01 -3.932119e-01 0.000000e+00  1.427070e-08 -9.375000e-01 0.000000e+00  -3.595917e-01 -4.502191e-02 0.000000e+00  -3.093592e-01 -8.815628e-09 0.000000e+00  -2.372300e-01 -1.965142e-01 0.000000e+00  -2.209862e-09 -2.525907e-01 0.000000e+00  -2.325922e-01 2.059110e-09 0.000000e+00  -4.805756e-01 1.025022e+00 0.000000e+00  -9.843750e-01 9.218750e-01 0.000000e+00  -2.662159e-08 -1.392116e+00 0.000000e+00  -5.239909e-01 6.056285e-01 0.000000e+00  -4.961604e-01 1.714009e-01 0.000000e+00  -4.723482e-01 2.743641e-01 0.000000e+00  -2.603081e-01 8.209626e-01 0.000000e+00  -2.682226e-08 -7.016767e-01 0.000000e+00  -1.821155e-01 6.424333e-01 0.000000e+00  -1.265644e-01 2.382389e-01 0.000000e+00  -1.235069e-01 1.184862e-01 0.000000e+00  -9.128503e-09 -1.252787e-01 0.000000e+00  -2.476598e-01 2.945985e-01 0.000000e+00  -3.266735e-01 1.914171e-01 0.000000e+00  -3.437500e-01 2.460937e-01 0.000000e+00  -1.338175e-01 3.618660e-01 0.000000e+00  -1.067711e-08 -3.854026e-01 0.000000e+00  -1.491710e-01 4.938918e-01 0.000000e+00  -2.212666e-01 -6.438016e-01 0.000000e+00  -1.164863e-01 -9.684422e-01 0.000000e+00  -8.858543e-02 -1.068931e+00 0.000000e+00  -3.353324e-01 -2.507329e-01 0.000000e+00  -3.433540e-01 -1.849653e-01 0.000000e+00  -3.811748e-01 6.076700e-02 0.000000e+00  -3.152852e-01 -3.322744e-01 0.000000e+00  -2.725208e-01 -4.262505e-01 0.000000e+00  -3.992785e-01 -2.961626e-02 0.000000e+00  -3.736657e-01 2.888447e-01 0.000000e+00  -4.192502e-01 3.063106e-01 0.000000e+00  -3.106713e-01 4.907048e-01 0.000000e+00  -2.330507e-01 9.854848e-02 0.000000e+00  -1.228082e-01 -1.745030e-08 0.000000e+00  -3.183687e-01 1.307672e-01 0.000000e+00  -3.621732e-01 6.057053e-02 0.000000e+00  -3.157868e-01 6.662483e-02 0.000000e+00  -3.169229e-01 4.094975e-10 0.000000e+00  -3.606564e-01 2.422747e-02 0.000000e+00  -1.840512e-01 -1.517914e-01 0.000000e+00  -2.195348e-08 -2.232767e-01 0.000000e+00  -1.900515e-01 -5.304181e-09 0.000000e+00  -1.776591e-01 -3.000528e-01 0.000000e+00  -1.215772e-08 -6.415811e-01 0.000000e+00  -1.705238e-01 -4.447711e-01 0.000000e+00  -3.017292e-01 -8.614876e-02 0.000000e+00  -3.648601e-01 -1.004974e-08 0.000000e+00  -3.584885e-01 -2.713166e-02 0.000000e+00  -1.366729e-01 -8.505336e-01 0.000000e+00  -6.849274e-09 -1.307984e+00 0.000000e+00  -2.658937e-01 -4.459451e-01 0.000000e+00  -3.468111e-01 -1.331122e-01 0.000000e+00  -1.512338e-01 -7.215913e-01 0.000000e+00  5.422483e-10 -1.011730e+00 0.000000e+00  -1.620400e-01 -5.856140e-01 0.000000e+00  -3.496268e-01 -9.159568e-02 0.000000e+00  -2.864155e-01 -2.609057e-01 0.000000e+00  -3.533844e-01 -5.709658e-02 0.000000e+00  -6.370256e-01 2.374972e-01 0.000000e+00  -9.690250e-01 3.453859e-01 0.000000e+00  -4.361897e-01 1.681390e-02 0.000000e+00  -2.991901e-01 -2.405760e-01 0.000000e+00  -2.747111e-01 -1.330450e-01 0.000000e+00  -3.482243e-02 -2.395983e-01 0.000000e+00  3.314564e-02 -4.253689e-01 0.000000e+00  -5.107849e-02 -1.143107e+00 0.000000e+00  4.543083e-09 -1.481661e+00 0.000000e+00  -1.156541e-01 -8.227907e-01 0.000000e+00  -1.964706e-01 -5.215211e-01 0.000000e+00  -2.695653e-03 -1.180117e+00 0.000000e+00  3.437734e-09 -1.459926e+00 0.000000e+00  5.701202e-02 -1.168181e+00 0.000000e+00  2.994919e-01 -7.267624e-01 0.000000e+00  4.368280e-08 -4.920501e-01 0.000000e+00  3.987167e-01 -4.120791e-01 0.000000e+00  2.088938e-01 -9.517503e-01 0.000000e+00  6.843354e-09 -1.157571e+00 0.000000e+00  1.277771e-01 -1.095659e+00 0.000000e+00  3.671623e-01 -7.606666e-01 0.000000e+00  4.791627e-01 -5.860427e-01 0.000000e+00  2.611514e-01 -6.453026e-01 0.000000e+00  -8.129285e-02 -6.009767e-01 0.000000e+00  8.096086e-02 -8.961865e-01 0.000000e+00  7.264942e-02 -6.469514e-01 0.000000e+00  -5.961799e-01 7.992759e-02 0.000000e+00  -1.303728e+00 5.483008e-10 0.000000e+00  -1.225173e-01 -1.022046e-01 0.000000e+00  2.578125e-01 -2.929688e-01 0.000000e+00  -2.058939e-01 -2.556794e-02 0.000000e+00  -2.423974e-01 8.248277e-09 0.000000e+00  1.910547e-01 -7.077318e-02 0.000000e+00  7.260681e-01 -3.373967e-01 0.000000e+00  5.058124e-01 -4.524928e-08 0.000000e+00  7.223607e-01 -4.621493e-01 0.000000e+00  5.504224e-01 -4.298945e-01 0.000000e+00  9.874898e-01 -2.682888e-01 0.000000e+00  1.272193e+00 -1.243268e-08 0.000000e+00  1.188840e+00 -2.049316e-01 0.000000e+00  1.493091e+00 -4.625028e-02 0.000000e+00  1.972577e+00 -1.027894e-09 0.000000e+00  1.511696e+00 -8.494362e-09 0.000000e+00  1.435887e+00 -9.473624e-02 0.000000e+00  1.747725e+00 -5.815955e-09 0.000000e+00  1.336271e+00 -1.472520e-01 0.000000e+00  1.037037e+00 -7.467932e-02 0.000000e+00  6.028092e-01 6.444951e-10 0.000000e+00  6.037246e-01 -8.401462e-02 0.000000e+00  5.882539e-01 -2.941589e-01 0.000000e+00  9.490304e-01 -2.452632e-01 0.000000e+00  6.022497e-01 -1.796331e-01 0.000000e+00  -9.690250e-01 -3.453859e-01 0.000000e+00  -9.843750e-01 -9.218751e-01 0.000000e+00  -5.961798e-01 -7.992758e-02 0.000000e+00  -2.058939e-01 2.556796e-02 0.000000e+00  -6.370255e-01 -2.374972e-01 0.000000e+00  -4.961604e-01 -1.714009e-01 0.000000e+00  -4.361897e-01 -1.681389e-02 0.000000e+00  1.037038e+00 7.467932e-02 0.000000e+00  1.493091e+00 4.625030e-02 0.000000e+00  6.037245e-01 8.401460e-02 0.000000e+00  1.910547e-01 7.077319e-02 0.000000e+00  6.022496e-01 1.796331e-01 0.000000e+00  5.882540e-01 2.941589e-01 0.000000e+00  2.578125e-01 2.929687e-01 0.000000e+00  -1.156541e-01 8.227908e-01 0.000000e+00  -5.107848e-02 1.143107e+00 0.000000e+00  -8.858543e-02 1.068931e+00 0.000000e+00  -8.129281e-02 6.009767e-01 0.000000e+00  7.264939e-02 6.469514e-01 0.000000e+00  3.314562e-02 4.253689e-01 0.000000e+00  -1.964706e-01 5.215210e-01 0.000000e+00  -2.725208e-01 4.262505e-01 0.000000e+00  -2.991901e-01 2.405759e-01 0.000000e+00  -1.225173e-01 1.022046e-01 0.000000e+00  -3.482240e-02 2.395984e-01 0.000000e+00  -2.747111e-01 1.330449e-01 0.000000e+00  1.435887e+00 9.473623e-02 0.000000e+00  1.972577e+00 -4.168204e-11 0.000000e+00  9.490302e-01 2.452632e-01 0.000000e+00  5.504224e-01 4.298944e-01 0.000000e+00  1.336271e+00 1.472520e-01 0.000000e+00  1.747725e+00 3.899455e-09 0.000000e+00  1.188840e+00 2.049316e-01 0.000000e+00  3.987167e-01 4.120791e-01 0.000000e+00  4.583454e-08 4.920500e-01 0.000000e+00  5.058124e-01 2.546837e-08 0.000000e+00  2.994918e-01 7.267624e-01 0.000000e+00  1.826281e-08 1.157571e+00 0.000000e+00  2.088938e-01 9.517504e-01 0.000000e+00  7.260680e-01 3.373966e-01 0.000000e+00  1.272193e+00 2.880533e-08 0.000000e+00  9.874898e-01 2.682888e-01 0.000000e+00  -2.695678e-03 1.180117e+00 0.000000e+00  6.080658e-10 1.481661e+00 0.000000e+00  8.096086e-02 8.961864e-01 0.000000e+00  2.611514e-01 6.453026e-01 0.000000e+00  5.701205e-02 1.168181e+00 0.000000e+00  -6.509714e-09 1.459926e+00 0.000000e+00  1.277771e-01 1.095659e+00 0.000000e+00  4.791627e-01 5.860427e-01 0.000000e+00  3.671623e-01 7.606667e-01 0.000000e+00  7.223607e-01 4.621493e-01 0.000000e+00  -5.239909e-01 -6.056285e-01 0.000000e+00  -4.805755e-01 -1.025022e+00 0.000000e+00  -4.723482e-01 -2.743641e-01 0.000000e+00  -3.992785e-01 2.961627e-02 0.000000e+00  -4.192502e-01 -3.063106e-01 0.000000e+00  -3.736657e-01 -2.888447e-01 0.000000e+00  -3.811747e-01 -6.076697e-02 0.000000e+00  -1.164863e-01 9.684422e-01 0.000000e+00  5.990814e-09 1.307984e+00 0.000000e+00  -2.212666e-01 6.438016e-01 0.000000e+00  -3.152852e-01 3.322745e-01 0.000000e+00  -1.366729e-01 8.505336e-01 0.000000e+00  -6.291889e-09 1.011730e+00 0.000000e+00  -1.512338e-01 7.215913e-01 0.000000e+00  -1.776591e-01 3.000528e-01 0.000000e+00  -2.147427e-08 2.232767e-01 0.000000e+00  -1.840512e-01 1.517914e-01 0.000000e+00  -1.705238e-01 4.447711e-01 0.000000e+00  -8.404032e-09 6.415811e-01 0.000000e+00  -1.620400e-01 5.856140e-01 0.000000e+00  -2.864155e-01 2.609056e-01 0.000000e+00  -3.496268e-01 9.159571e-02 0.000000e+00  -3.468111e-01 1.331123e-01 0.000000e+00  -3.353324e-01 2.507329e-01 0.000000e+00  -2.658936e-01 4.459452e-01 0.000000e+00  -3.433540e-01 1.849653e-01 0.000000e+00  -2.603082e-01 -8.209626e-01 0.000000e+00  -1.167969e-08 -1.392117e+00 0.000000e+00  -3.106712e-01 -4.907047e-01 0.000000e+00  -3.437500e-01 -2.460937e-01 0.000000e+00  -1.821155e-01 -6.424333e-01 0.000000e+00  -1.950969e-08 -7.016768e-01 0.000000e+00  -1.491710e-01 -4.938919e-01 0.000000e+00  -3.017292e-01 8.614880e-02 0.000000e+00  -1.900515e-01 2.040150e-08 0.000000e+00  -3.533844e-01 5.709658e-02 0.000000e+00  -3.621733e-01 -6.057054e-02 0.000000e+00  -3.584885e-01 2.713165e-02 0.000000e+00  -3.648601e-01 3.976341e-09 0.000000e+00  -3.606564e-01 -2.422747e-02 0.000000e+00  -1.235069e-01 -1.184862e-01 0.000000e+00  -1.228082e-01 -1.137958e-08 0.000000e+00  -1.322044e-08 -1.252787e-01 0.000000e+00  -2.330507e-01 -9.854847e-02 0.000000e+00  -3.169229e-01 -1.907456e-09 0.000000e+00  -3.157868e-01 -6.662484e-02 0.000000e+00  -1.265644e-01 -2.382389e-01 0.000000e+00  -1.033291e-08 -3.854026e-01 0.000000e+00  -1.338175e-01 -3.618660e-01 0.000000e+00  -3.266735e-01 -1.914171e-01 0.000000e+00  -3.183687e-01 -1.307672e-01 0.000000e+00  -2.476598e-01 -2.945986e-01 0.000000e+00  -6.527420e-01 1.527493e+00 0.000000e+00  1.325149e-07 -1.992187e+00 0.000000e+00  -1.408689e+00 1.386592e+00 0.000000e+00  -3.226957e-01 1.265789e+00 0.000000e+00  2.406725e-08 -1.114106e+00 0.000000e+00  -1.997419e-01 1.058358e+00 0.000000e+00  -7.136480e-01 1.066635e+00 0.000000e+00  -7.877917e-01 6.729717e-01 0.000000e+00  -6.633665e-01 7.797766e-01 0.000000e+00  -4.915028e-01 2.319220e-01 0.000000e+00  -4.409359e-01 7.800767e-02 0.000000e+00  -4.322115e-01 2.296776e-02 0.000000e+00  -5.025505e-01 4.338078e-01 0.000000e+00  -4.559255e-01 4.481311e-01 0.000000e+00  -4.497070e-01 6.030275e-01 0.000000e+00  -5.450773e-01 3.928300e-01 0.000000e+00  -5.706923e-01 3.236394e-01 0.000000e+00  -6.026608e-01 5.693919e-01 0.000000e+00  -9.524806e-02 6.863363e-01 0.000000e+00  -8.401773e-02 5.994972e-01 0.000000e+00  5.104379e-08 -6.112392e-01 0.000000e+00  -2.122655e-01 7.269694e-01 0.000000e+00  -2.896570e-01 6.403973e-01 0.000000e+00  -3.411238e-01 7.053805e-01 0.000000e+00  -1.130752e-01 7.859353e-01 0.000000e+00  7.640182e-08 -8.070808e-01 0.000000e+00  -1.432742e-01 9.056311e-01 0.000000e+00  -4.172114e-01 7.638057e-01 0.000000e+00  -3.406720e-01 9.242670e-01 0.000000e+00  -5.260634e-01 7.993175e-01 0.000000e+00  -6.264058e-02 1.235733e-01 0.000000e+00  2.750295e-08 -6.253260e-02 0.000000e+00  -6.231610e-02 6.169657e-02 0.000000e+00  -6.327079e-02 1.858885e-01 0.000000e+00  1.577887e-08 -1.885114e-01 0.000000e+00  -6.430674e-02 2.489805e-01 0.000000e+00  -1.246552e-01 1.780731e-01 0.000000e+00  -1.823236e-01 1.652184e-01 0.000000e+00  -1.848089e-01 2.206210e-01 0.000000e+00  -3.338778e-01 2.197573e-01 0.000000e+00  -3.626621e-01 1.600962e-01 0.000000e+00  -3.554656e-01 1.458061e-01 0.000000e+00  -3.007066e-01 2.862181e-01 0.000000e+00  -3.125012e-01 3.243669e-01 0.000000e+00  -2.565619e-01 3.438537e-01 0.000000e+00  -2.921909e-01 2.469517e-01 0.000000e+00  -2.862164e-01 2.069435e-01 0.000000e+00  -2.414382e-01 2.454997e-01 0.000000e+00  -7.164690e-02 4.483112e-01 0.000000e+00  -7.663375e-02 5.210627e-01 0.000000e+00  1.820452e-08 -4.557295e-01 0.000000e+00  -1.400918e-01 4.264330e-01 0.000000e+00  -2.141438e-01 4.505124e-01 0.000000e+00  -2.024851e-01 3.911277e-01 0.000000e+00  -6.823214e-02 3.794609e-01 0.000000e+00  3.294373e-08 -3.180003e-01 0.000000e+00  -6.589091e-02 3.133004e-01 0.000000e+00  -1.943188e-01 3.332649e-01 0.000000e+00  -1.294938e-01 2.993451e-01 0.000000e+00  -1.886513e-01 2.765420e-01 0.000000e+00  -1.036285e-01 -1.021364e+00 0.000000e+00  -4.421719e-02 -1.239508e+00 0.000000e+00  -5.253113e-02 -1.191384e+00 0.000000e+00  -1.534511e-01 -8.552314e-01 0.000000e+00  -1.332977e-01 -9.024407e-01 0.000000e+00  -2.021930e-01 -6.928413e-01 0.000000e+00  -1.702810e-01 -8.043349e-01 0.000000e+00  -1.842216e-01 -7.508094e-01 0.000000e+00  -2.365010e-01 -5.939135e-01 0.000000e+00  -3.674784e-01 -6.011529e-02 0.000000e+00  -3.747523e-01 6.641877e-02 0.000000e+00  -3.656838e-01 -4.327681e-02 0.000000e+00  -3.687853e-01 -8.158839e-02 0.000000e+00  -3.881111e-01 4.954315e-02 0.000000e+00  -3.686797e-01 -1.084477e-01 0.000000e+00  -3.402881e-01 -2.159175e-01 0.000000e+00  -3.032858e-01 -3.535366e-01 0.000000e+00  -2.951848e-01 -3.958040e-01 0.000000e+00  -3.446933e-01 -2.250248e-01 0.000000e+00  -3.922924e-01 -7.345558e-02 0.000000e+00  -3.222492e-01 -2.743722e-01 0.000000e+00  -3.585184e-01 -1.802671e-01 0.000000e+00  -3.990880e-01 5.358407e-03 0.000000e+00  -3.658351e-01 -1.412736e-01 0.000000e+00  -2.974650e-01 -3.782159e-01 0.000000e+00  -2.248601e-01 -5.813050e-01 0.000000e+00  -2.500958e-01 -5.339600e-01 0.000000e+00  -3.274280e-01 -2.895740e-01 0.000000e+00  -2.695635e-01 -4.865817e-01 0.000000e+00  -2.842569e-01 -4.402841e-01 0.000000e+00  -3.720195e-01 1.709990e-01 0.000000e+00  -3.568376e-01 2.695612e-01 0.000000e+00  -3.285139e-01 3.607149e-01 0.000000e+00  -3.836159e-01 1.773200e-01 0.000000e+00  -3.972246e-01 1.774840e-01 0.000000e+00  -4.374093e-01 1.211489e-01 0.000000e+00  -4.463161e-01 2.983160e-01 0.000000e+00  -4.132761e-01 4.420566e-01 0.000000e+00  -4.264128e-01 1.513882e-01 0.000000e+00  -4.120541e-01 1.695491e-01 0.000000e+00  -1.624194e-01 5.653844e-01 0.000000e+00  -2.547572e-01 5.752048e-01 0.000000e+00  -3.440111e-01 5.364511e-01 0.000000e+00  -2.307956e-01 5.117964e-01 0.000000e+00  -2.865068e-01 4.424042e-01 0.000000e+00  -3.778277e-01 4.223047e-01 0.000000e+00  -3.498818e-01 3.940529e-01 0.000000e+00  -3.945537e-01 3.020013e-01 0.000000e+00  -1.229356e-01 5.920055e-02 0.000000e+00  -6.222550e-02 -1.052922e-08 0.000000e+00  -1.808639e-01 1.101011e-01 0.000000e+00  -2.345521e-01 1.475609e-01 0.000000e+00  -1.801899e-01 5.507946e-02 0.000000e+00  -1.801252e-01 4.328270e-08 0.000000e+00  -2.324632e-01 4.938835e-02 0.000000e+00  -3.502131e-01 1.290004e-01 0.000000e+00  -3.651419e-01 6.545084e-02 0.000000e+00  -3.216431e-01 1.616336e-01 0.000000e+00  -2.822159e-01 1.663921e-01 0.000000e+00  -3.466430e-01 1.103019e-01 0.000000e+00  -3.603621e-01 5.361067e-02 0.000000e+00  -3.444967e-01 9.015047e-02 0.000000e+00  -3.444158e-01 2.364895e-02 0.000000e+00  -3.622472e-01 1.246552e-02 0.000000e+00  -3.459338e-01 3.126264e-08 0.000000e+00  -3.435703e-01 4.663761e-02 0.000000e+00  -3.597322e-01 3.514295e-02 0.000000e+00  -3.435401e-01 6.885623e-02 0.000000e+00  -3.159836e-01 3.358908e-02 0.000000e+00  -2.786794e-01 -2.192807e-08 0.000000e+00  -2.782128e-01 4.219783e-02 0.000000e+00  -2.797562e-01 1.253953e-01 0.000000e+00  -3.165084e-01 9.904864e-02 0.000000e+00  -2.785065e-01 8.399395e-02 0.000000e+00  -1.024841e-01 -9.416458e-02 0.000000e+00  -1.042718e-01 5.205164e-09 0.000000e+00  3.142439e-08 -1.127190e-01 0.000000e+00  -1.870855e-01 -7.634261e-02 0.000000e+00  -2.581339e-01 4.705270e-08 0.000000e+00  -2.545135e-01 -5.929419e-02 0.000000e+00  -1.006369e-01 -1.868442e-01 0.000000e+00  4.570148e-08 -3.315769e-01 0.000000e+00  -9.871254e-02 -2.779990e-01 0.000000e+00  -9.221601e-02 -5.416332e-01 0.000000e+00  -8.968506e-02 -6.258691e-01 0.000000e+00  2.900384e-08 -7.393233e-01 0.000000e+00  -1.742150e-01 -3.728650e-01 0.000000e+00  -2.393801e-01 -2.931762e-01 0.000000e+00  -2.433459e-01 -2.350727e-01 0.000000e+00  -9.453505e-02 -4.554860e-01 0.000000e+00  -9.429505e-09 -5.408966e-01 0.000000e+00  -9.668829e-02 -3.675722e-01 0.000000e+00  -3.615289e-01 -1.329298e-02 0.000000e+00  -3.683108e-01 1.245448e-04 0.000000e+00  -3.710944e-01 -1.402641e-08 0.000000e+00  -3.373525e-01 -5.575388e-02 0.000000e+00  -3.339577e-01 -8.425877e-02 0.000000e+00  -2.979677e-01 -1.293504e-01 0.000000e+00  -3.409061e-01 -2.771254e-02 0.000000e+00  -3.446186e-01 -1.425828e-08 0.000000e+00  -3.055200e-01 -4.306641e-02 0.000000e+00  -2.471540e-01 -1.767674e-01 0.000000e+00  -2.508629e-01 -1.181961e-01 0.000000e+00  -1.809214e-01 -2.263596e-01 0.000000e+00  -5.976373e-02 -1.136291e+00 0.000000e+00  4.454141e-09 -1.365376e+00 0.000000e+00  -1.274125e-01 -9.112059e-01 0.000000e+00  -1.957247e-01 -6.955043e-01 0.000000e+00  -6.602796e-02 -1.075257e+00 0.000000e+00  2.211741e-08 -1.243059e+00 0.000000e+00  -7.144258e-02 -1.009182e+00 0.000000e+00  -3.453368e-01 -1.575147e-01 0.000000e+00  -3.639908e-01 -3.029709e-02 0.000000e+00  -3.093698e-01 -3.136038e-01 0.000000e+00  -2.581881e-01 -4.945538e-01 0.000000e+00  -3.140933e-01 -2.759328e-01 0.000000e+00  -3.179601e-01 -2.403308e-01 0.000000e+00  -2.722068e-01 -3.982990e-01 0.000000e+00  -8.374860e-02 -7.877728e-01 0.000000e+00  -8.688541e-02 -7.080004e-01 0.000000e+00  3.138841e-09 -9.247821e-01 0.000000e+00  -1.570054e-01 -6.543115e-01 0.000000e+00  -2.255673e-01 -4.667812e-01 0.000000e+00  -2.198236e-01 -5.244605e-01 0.000000e+00  -8.019350e-02 -8.648575e-01 0.000000e+00  2.710853e-