<?xml version="1.0"?>
<VTKFile type="UnstructuredGrid"  version="0.1"  >
<UnstructuredGrid>
<Piece  NumberOfPoints="27" NumberOfCells="32">
<Points>
<DataArray  type="Float32"  NumberOfComponents="3"  format="ascii">0 0 0  1 0 0  1 1 0  0 1 0  -1 1 0  -1 0 0  -1 -1 0  0 -1 0  1 -1 0  1 0 0  0.5 0.5 0  0 0.5 0  0.5 0 0  0.5 1 0  1 0.5 0  -0.5 1 0  -0.5 0.5 0  -1 0.5 0  -0.5 0 0  -0.5 -0.5 0  0 -0.5 0  -0.5 -1 0  -1 -0.5 0  0.5 -1 0  0.5 -0.5 0  1 -0.5 0  0.5 0 0  </DataArray>
</Points>
<Cells>
<DataArray  type="UInt32"  Name="connectivity"  format="ascii">0 11 12  1 10 12  3 10 11  10 11 12  1 10 14  2 13 14  3 10 13  10 13 14  0 11 16  3 11 15  4 15 16  11 15 16  0 16 18  4 16 17  5 17 18  16 17 18  0 18 20  5 18 19  7 19 20  18 19 20  5 19 22  6 21 22  7 19 21  19 21 22  0 20 24  7 20 23  8 23 24  20 23 24  0 24 26  8 24 25  9 25 26  24 25 26  </DataArray>
<DataArray  type="UInt32"  Name="offsets"  format="ascii">3 6 9 12 15 18 21 24 27 30 33 36 39 42 45 48 51 54 57 60 63 66 69 72 75 78 81 84 87 90 93 96 </DataArray>
<DataArray  type="UInt8"  Name="types"  format="ascii">5 5 5 5 5 5 5 5 5 5 5 5 5 5 5 5 5 5 5 5 5 5 5 5 5 5 5 5 5 5 5 5 </DataArray>
</Cells>
<PointData  Vectors="u"> 
<DataArray  type="Float32"  Name="u"  NumberOfComponents="3" format="ascii">-5.088336e-07 5.081026e-08 0.000000e+00  -4.458460e-07 9.214526e-10 0.000000e+00  -1.501676e-06 4.385099e-07 0.000000e+00  -6.685012e-07 -1.414214e+00 0.000000e+00  -2.454033e-07 3.188935e-07 0.000000e+00  2.000001e+00 7.135483e-07 0.000000e+00  2.229426e-07 3.580471e-07 0.000000e+00  2.092178e-07 1.414214e+00 0.000000e+00  -7.015771e-08 -1.735550e-07 0.000000e+00  -7.843157e-08 -3.607680e-08 0.000000e+00  -3.693424e-01 6.765758e-02 0.000000e+00  -3.749991e-01 -1.249998e-01 0.000000e+00  1.872998e-06 5.303294e-01 0.000000e+00  2.064154e-06 -8.338401e-01 0.000000e+00  -3.644003e-01 -2.792442e-07 0.000000e+00  1.152651e-06 -1.349181e+00 0.000000e+00  2.736605e-01 -4.546714e-01 0.000000e+00  1.543628e+00 -5.860037e-07 0.000000e+00  1.767765e-01 -7.015173e-07 0.000000e+00  2.736596e-01 4.546707e-01 0.000000e+00  -3.749994e-01 1.250004e-01 0.000000e+00  -3.515804e-07 1.349181e+00 0.000000e+00  1.543628e+00 -1.102047e-06 0.000000e+00  -8.145895e-07 -8.338390e-01 0.000000e+00  3.693424e-01 6.765727e-02 0.000000e+00  3.644013e-01 -2.918295e-07 0.000000e+00  9.980483e-08 5.303305e-01 0.000000e+00  </DataArray> 
</PointData> 
</Piece>
</UnstructuredGrid>
</VTKFile>