<?xml version="1.0"?>
<VTKFile type="UnstructuredGrid"  version="0.1"  >
<UnstructuredGrid>
<Piece  NumberOfPoints="297" NumberOfCells="512">
<Points>
<DataArray  type="Float32"  NumberOfComponents="3"  format="ascii">0 0 0  1 0 0  1 1 0  0 1 0  -1 1 0  -1 0 0  -1 -1 0  0 -1 0  1 -1 0  1 0 0  0.5 0.5 0  0 0.5 0  0.5 0 0  0.5 1 0  1 0.5 0  -0.5 1 0  -0.5 0.5 0  -1 0.5 0  -0.5 0 0  -0.5 -0.5 0  0 -0.5 0  -0.5 -1 0  -1 -0.5 0  0.5 -1 0  0.5 -0.5 0  1 -0.5 0  0.5 0 0  0.25 0.25 0  0.25 0 0  0 0.25 0  0.5 0.25 0  0.75 0 0  0.75 0.25 0  0.25 0.5 0  0 0.75 0  0.25 0.75 0  0.75 0.5 0  1 0.25 0  0.75 0.75 0  1 0.75 0  0.75 1 0  0.5 0.75 0  0.25 1 0  -0.25 0.5 0  -0.25 0.25 0  -0.25 0.75 0  -0.25 1 0  -0.5 0.75 0  -0.75 0.75 0  -0.75 1 0  -0.5 0.25 0  -0.25 0 0  -0.75 0.5 0  -1 0.75 0  -0.75 0.25 0  -0.75 0 0  -1 0.25 0  -0.25 -0.25 0  0 -0.25 0  -0.5 -0.25 0  -0.75 -0.25 0  -0.25 -0.5 0  0 -0.75 0  -0.25 -0.75 0  -0.75 -0.5 0  -1 -0.25 0  -0.75 -0.75 0  -1 -0.75 0  -0.75 -1 0  -0.5 -0.75 0  -0.25 -1 0  0.25 -0.5 0  0.25 -0.25 0  0.25 -0.75 0  0.25 -1 0  0.5 -0.75 0  0.75 -0.75 0  0.75 -1 0  0.5 -0.25 0  0.25 0 0  0.75 -0.5 0  1 -0.75 0  0.75 -0.25 0  0.75 0 0  1 -0.25 0  0.125 0.125 0  0 0.125 0  0.125 0 0  0.125 0.25 0  0 0.375 0  0.125 0.375 0  0.25 0.125 0  0.375 0 0  0.375 0.125 0  0.75 0.125 0  0.875 0.125 0  0.875 0 0  0.625 0.25 0  0.625 0.375 0  0.5 0.375 0  0.625 0.125 0  0.625 0 0  0.5 0.125 0  0.125 0.75 0  0.125 0.875 0  0 0.875 0  0.25 0.625 0  0.375 0.625 0  0.375 0.5 0  0.125 0.625 0  0 0.625 0  0.125 0.5 0  0.375 0.375 0  0.25 0.375 0  0.375 0.25 0  0.875 0.25 0  1 0.125 0  0.75 0.375 0  0.625 0.5 0  0.875 0.375 0  1 0.375 0  0.875 0.5 0  0.875 0.875 0  0.875 1 0  1 0.875 0  0.75 0.875 0  0.625 1 0  0.625 0.875 0  0.875 0.75 0  1 0.625 0  0.875 0.625 0  0.25 0.875 0  0.125 1 0  0.375 0.75 0  0.5 0.625 0  0.375 0.875 0  0.375 1 0  0.5 0.875 0  0.625 0.625 0  0.625 0.75 0  0.75 0.625 0  -0.125 0.25 0  -0.125 0.125 0  -0.125 0.375 0  -0.125 0.5 0  -0.25 0.375 0  -0.375 0.375 0  -0.375 0.5 0  -0.125 0.875 0  -0.125 1 0  -0.125 0.75 0  -0.125 0.625 0  -0.25 0.875 0  -0.375 1 0  -0.375 0.875 0  -0.75 0.875 0  -0.875 1 0  -0.875 0.875 0  -0.625 0.875 0  -0.625 1 0  -0.5 0.875 0  -0.625 0.75 0  -0.625 0.625 0  -0.5 0.625 0  -0.25 0.625 0  -0.375 0.75 0  -0.375 0.625 0  -0.25 0.125 0  -0.125 0 0  -0.375 0.25 0  -0.5 0.375 0  -0.375 0.125 0  -0.375 0 0  -0.5 0.125 0  -0.875 0.75 0  -1 0.875 0  -0.75 0.625 0  -0.625 0.5 0  -0.875 0.625 0  -1 0.625 0  -0.875 0.5 0  -0.875 0.125 0  -1 0.125 0  -0.875 0 0  -0.875 0.25 0  -1 0.375 0  -0.875 0.375 0  -0.75 0.125 0  -0.625 0 0  -0.625 0.125 0  -0.625 0.375 0  -0.75 0.375 0  -0.625 0.25 0  -0.125 -0.125 0  0 -0.125 0  -0.25 -0.125 0  -0.375 -0.125 0  -0.125 -0.25 0  0 -0.375 0  -0.125 -0.375 0  -0.75 -0.125 0  -0.875 -0.125 0  -0.625 -0.125 0  -0.5 -0.125 0  -0.625 -0.25 0  -0.625 -0.375 0  -0.5 -0.375 0  -0.125 -0.75 0  -0.125 -0.875 0  0 -0.875 0  -0.25 -0.625 0  -0.375 -0.625 0  -0.375 -0.5 0  -0.125 -0.625 0  0 -0.625 0  -0.125 -0.5 0  -0.375 -0.25 0  -0.375 -0.375 0  -0.25 -0.375 0  -0.875 -0.25 0  -1 -0.125 0  -0.75 -0.375 0  -0.625 -0.5 0  -0.875 -0.375 0  -1 -0.375 0  -0.875 -0.5 0  -0.875 -0.875 0  -0.875 -1 0  -1 -0.875 0  -0.75 -0.875 0  -0.625 -1 0  -0.625 -0.875 0  -0.875 -0.75 0  -1 -0.625 0  -0.875 -0.625 0  -0.25 -0.875 0  -0.125 -1 0  -0.375 -0.75 0  -0.5 -0.625 0  -0.375 -0.875 0  -0.375 -1 0  -0.5 -0.875 0  -0.625 -0.625 0  -0.625 -0.75 0  -0.75 -0.625 0  0.125 -0.25 0  0.125 -0.125 0  0.125 -0.375 0  0.125 -0.5 0  0.25 -0.375 0  0.375 -0.375 0  0.375 -0.5 0  0.125 -0.875 0  0.125 -1 0  0.125 -0.75 0  0.125 -0.625 0  0.25 -0.875 0  0.375 -1 0  0.375 -0.875 0  0.75 -0.875 0  0.875 -1 0  0.875 -0.875 0  0.625 -0.875 0  0.625 -1 0  0.5 -0.875 0  0.625 -0.75 0  0.625 -0.625 0  0.5 -0.625 0  0.25 -0.625 0  0.375 -0.75 0  0.375 -0.625 0  0.25 -0.125 0  0.125 0 0  0.375 -0.25 0  0.5 -0.375 0  0.375 -0.125 0  0.375 0 0  0.5 -0.125 0  0.875 -0.75 0  1 -0.875 0  0.75 -0.625 0  0.625 -0.5 0  0.875 -0.625 0  1 -0.625 0  0.875 -0.5 0  0.875 -0.125 0  1 -0.125 0  0.875 0 0  0.875 -0.25 0  1 -0.375 0  0.875 -0.375 0  0.75 -0.125 0  0.625 0 0  0.625 -0.125 0  0.625 -0.375 0  0.75 -0.375 0  0.625 -0.25 0  </DataArray>
</Points>
<Cells>
<DataArray  type="UInt32"  Name="connectivity"  format="ascii">0 86 87  28 85 87  29 85 86  85 86 87  11 89 90  27 88 90  29 88 89  88 89 90  12 92 93  27 91 93  28 91 92  91 92 93  27 88 91  28 85 91  29 85 88  85 88 91  1 95 96  31 94 96  32 94 95  94 95 96  10 98 99  30 97 99  32 97 98  97 98 99  12 101 102  30 100 102  31 100 101  100 101 102  30 97 100  31 94 100  32 94 97  94 97 100  3 104 105  34 103 105  35 103 104  103 104 105  10 107 108  33 106 108  35 106 107  106 107 108  11 110 111  33 109 111  34 109 110  109 110 111  33 106 109  34 103 109  35 103 106  103 106 109  10 99 108  30 99 112  33 108 112  99 108 112  11 90 111  27 90 113  33 111 113  90 111 113  12 93 102  27 93 114  30 102 114  93 102 114  27 113 114  30 112 114  33 112 113  112 113 114  1 95 116  32 95 115  37 115 116  95 115 116  10 98 118  32 98 117  36 117 118  98 117 118  14 120 121  36 119 121  37 119 120  119 120 121  32 115 117  36 117 119  37 115 119  115 117 119  2 123 124  39 122 124  40 122 123  122 123 124  13 126 127  38 125 127  40 125 126  125 126 127  14 129 130  38 128 130  39 128 129  128 129 130  38 125 128  39 122 128  40 122 125  122 125 128  3 104 132  35 104 131  42 131 132  104 131 132  10 107 134  35 107 133  41 133 134  107 133 134  13 136 137  41 135 137  42 135 136  135 136 137  35 131 133  41 133 135  42 131 135  131 133 135  10 118 134  36 118 138  41 134 138  118 134 138  13 127 137  38 127 139  41 137 139  127 137 139  14 121 130  36 121 140  38 130 140  121 130 140  36 138 140  38 139 140  41 138 139  138 139 140  0 86 142  29 86 141  44 141 142  86 141 142  11 89 144  29 89 143  43 143 144  89 143 144  16 146 147  43 145 147  44 145 146  145 146 147  29 141 143  43 143 145  44 141 145  141 143 145  3 105 149  34 105 148  46 148 149  105 148 149  11 110 151  34 110 150  45 150 151  110 150 151  15 153 154  45 152 154  46 152 153  152 153 154  34 148 150  45 150 152  46 148 152  148 150 152  4 156 157  48 155 157  49 155 156  155 156 157  15 159 160  47 158 160  49 158 159  158 159 160  16 162 163  47 161 163  48 161 162  161 162 163  47 158 161  48 155 161  49 155 158  155 158 161  11 144 151  43 144 164  45 151 164  144 151 164  15 154 160  45 154 165  47 160 165  154 160 165  16 147 163  43 147 166  47 163 166  147 163 166  43 164 166  45 164 165  47 165 166  164 165 166  0 142 168  44 142 167  51 167 168  142 167 168  16 146 170  44 146 169  50 169 170  146 169 170  18 172 173  50 171 173  51 171 172  171 172 173  44 167 169  50 169 171  51 167 171  167 169 171  4 157 175  48 157 174  53 174 175  157 174 175  16 162 177  48 162 176  52 176 177  162 176 177  17 179 180  52 178 180  53 178 179  178 179 180  48 174 176  52 176 178  53 174 178  174 176 178  5 182 183  55 181 183  56 181 182  181 182 183  17 185 186  54 184 186  56 184 185  184 185 186  18 188 189  54 187 189  55 187 188  187 188 189  54 184 187  55 181 187  56 181 184  181 184 187  16 170 177  50 170 190  52 177 190  170 177 190  17 180 186  52 180 191  54 186 191  180 186 191  18 173 189  50 173 192  54 189 192  173 189 192  50 190 192  52 190 191  54 191 192  190 191 192  0 168 194  51 168 193  58 193 194  168 193 194  18 172 196  51 172 195  57 195 196  172 195 196  20 198 199  57 197 199  58 197 198  197 198 199  51 193 195  57 195 197  58 193 197  193 195 197  5 183 201  55 183 200  60 200 201  183 200 201  18 188 203  55 188 202  59 202 203  188 202 203  19 205 206  59 204 206  60 204 205  204 205 206  55 200 202  59 202 204  60 200 204  200 202 204  7 208 209  62 207 209  63 207 208  207 208 209  19 211 212  61 210 212  63 210 211  210 211 212  20 214 215  61 213 215  62 213 214  213 214 215  61 210 213  62 207 213  63 207 210  207 210 213  18 196 203  57 196 216  59 203 216  196 203 216  19 206 212  59 206 217  61 212 217  206 212 217  20 199 215  57 199 218  61 215 218  199 215 218  57 216 218  59 216 217  61 217 218  216 217 218  5 201 220  60 201 219  65 219 220  201 219 220  19 205 222  60 205 221  64 221 222  205 221 222  22 224 225  64 223 225  65 223 224  223 224 225  60 219 221  64 221 223  65 219 223  219 221 223  6 227 228  67 226 228  68 226 227  226 227 228  21 230 231  66 229 231  68 229 230  229 230 231  22 233 234  66 232 234  67 232 233  232 233 234  66 229 232  67 226 232  68 226 229  226 229 232  7 208 236  63 208 235  70 235 236  208 235 236  19 211 238  63 211 237  69 237 238  211 237 238  21 240 241  69 239 241  70 239 240  239 240 241  63 235 237  69 237 239  70 235 239  235 237 239  19 222 238  64 222 242  69 238 242  222 238 242  21 231 241  66 231 243  69 241 243  231 241 243  22 225 234  64 225 244  66 234 244  225 234 244  64 242 244  66 243 244  69 242 243  242 243 244  0 194 246  58 194 245  72 245 246  194 245 246  20 198 248  58 198 247  71 247 248  198 247 248  24 250 251  71 249 251  72 249 250  249 250 251  58 245 247  71 247 249  72 245 249  245 247 249  7 209 253  62 209 252  74 252 253  209 252 253  20 214 255  62 214 254  73 254 255  214 254 255  23 257 258  73 256 258  74 256 257  256 257 258  62 252 254  73 254 256  74 252 256  252 254 256  8 260 261  76 259 261  77 259 260  259 260 261  23 263 264  75 262 264  77 262 263  262 263 264  24 266 267  75 265 267  76 265 266  265 266 267  75 262 265  76 259 265  77 259 262  259 262 265  20 248 255  71 248 268  73 255 268  248 255 268  23 258 264  73 258 269  75 264 269  258 264 269  24 251 267  71 251 270  75 267 270  251 267 270  71 268 270  73 268 269  75 269 270  268 269 270  0 246 272  72 246 271  79 271 272  246 271 272  24 250 274  72 250 273  78 273 274  250 273 274  26 276 277  78 275 277  79 275 276  275 276 277  72 271 273  78 273 275  79 271 275  271 273 275  8 261 279  76 261 278  81 278 279  261 278 279  24 266 281  76 266 280  80 280 281  266 280 281  25 283 284  80 282 284  81 282 283  282 283 284  76 278 280  80 280 282  81 278 282  278 280 282  9 286 287  83 285 287  84 285 286  285 286 287  25 289 290  82 288 290  84 288 289  288 289 290  26 292 293  82 291 293  83 291 292  291 292 293  82 288 291  83 285 291  84 285 288  285 288 291  24 274 281  78 274 294  80 281 294  274 281 294  25 284 290  80 284 295  82 290 295  284 290 295  26 277 293  78 277 296  82 293 296  277 293 296  78 294 296  80 294 295  82 295 296  294 295 296  </DataArray>
<DataArray  type="UInt32"  Name="offsets"  format="ascii">3 6 9 12 15 18 21 24 27 30 33 36 39 42 45 48 51 54 57 60 63 66 69 72 75 78 81 84 87 90 93 96 99 102 105 108 111 114 117 120 123 126 129 132 135 138 141 144 147 150 153 156 159 162 165 168 171 174 177 180 183 186 189 192 195 198 201 204 207 210 213 216 219 222 225 228 231 234 237 240 243 246 249 252 255 258 261 264 267 270 273 276 279 282 285 288 291 294 297 300 303 306 309 312 315 318 321 324 327 330 333 336 339 342 345 348 351 354 357 360 363 366 369 372 375 378 381 384 387 390 393 396 399 402 405 408 411 414 417 420 423 426 429 432 435 438 441 444 447 450 453 456 459 462 465 468 471 474 477 480 483 486 489 492 495 498 501 504 507 510 513 516 519 522 525 528 531 534 537 540 543 546 549 552 555 558 561 564 567 570 573 576 579 582 585 588 591 594 597 600 603 606 609 612 615 618 621 624 627 630 633 636 639 642 645 648 651 654 657 660 663 666 669 672 675 678 681 684 687 690 693 696 699 702 705 708 711 714 717 720 723 726 729 732 735 738 741 744 747 750 753 756 759 762 765 768 771 774 777 780 783 786 789 792 795 798 801 804 807 810 813 816 819 822 825 828 831 834 837 840 843 846 849 852 855 858 861 864 867 870 873 876 879 882 885 888 891 894 897 900 903 906 909 912 915 918 921 924 927 930 933 936 939 942 945 948 951 954 957 960 963 966 969 972 975 978 981 984 987 990 993 996 999 1002 1005 1008 1011 1014 1017 1020 1023 1026 1029 1032 1035 1038 1041 1044 1047 1050 1053 1056 1059 1062 1065 1068 1071 1074 1077 1080 1083 1086 1089 1092 1095 1098 1101 1104 1107 1110 1113 1116 1119 1122 1125 1128 1131 1134 1137 1140 1143 1146 1149 1152 1155 1158 1161 1164 1167 1170 1173 1176 1179 1182 1185 1188 1191 1194 1197 1200 1203 1206 1209 1212 1215 1218 1221 1224 1227 1230 1233 1236 1239 1242 1245 1248 1251 1254 1257 1260 1263 1266 1269 1272 1275 1278 1281 1284 1287 1290 1293 1296 1299 1302 1305 1308 1311 1314 1317 1320 1323 1326 1329 1332 1335 1338 1341 1344 1347 1350 1353 1356 1359 1362 1365 1368 1371 1374 1377 1380 1383 1386 1389 1392 1395 1398 1401 1404 1407 1410 1413 1416 1419 1422 1425 1428 1431 1434 1437 1440 1443 1446 1449 1452 1455 1458 1461 1464 1467 1470 1473 1476 1479 1482 1485 1488 1491 1494 1497 1500 1503 1506 1509 1512 1515 1518 1521 1524 1527 1530 1533 1536 </DataArray>
<DataArray  type="UInt8"  Name="types"  format="ascii">5 5 5 5 5 5 5 5 5 5 5 5 5 5 5 5 5 5 5 5 5 5 5 5 5 5 5 5 5 5 5 5 5 5 5 5 5 5 5 5 5 5 5 5 5 5 5 5 5 5 5 5 5 5 5 5 5 5 5 5 5 5 5 5 5 5 5 5 5 5 5 5 5 5 5 5 5 5 5 5 5 5 5 5 5 5 5 5 5 5 5 5 5 5 5 5 5 5 5 5 5 5 5 5 5 5 5 5 5 5 5 5 5 5 5 5 5 5 5 5 5 5 5 5 5 5 5 5 5 5 5 5 5 5 5 5 5 5 5 5 5 5 5 5 5 5 5 5 5 5 5 5 5 5 5 5 5 5 5 5 5 5 5 5 5 5 5 5 5 5 5 5 5 5 5 5 5 5 5 5 5 5 5 5 5 5 5 5 5 5 5 5 5 5 5 5 5 5 5 5 5 5 5 5 5 5 5 5 5 5 5 5 5 5 5 5 5 5 5 5 5 5 5 5 5 5 5 5 5 5 5 5 5 5 5 5 5 5 5 5 5 5 5 5 5 5 5 5 5 5 5 5 5 5 5 5 5 5 5 5 5 5 5 5 5 5 5 5 5 5 5 5 5 5 5 5 5 5 5 5 5 5 5 5 5 5 5 5 5 5 5 5 5 5 5 5 5 5 5 5 5 5 5 5 5 5 5 5 5 5 5 5 5 5 5 5 5 5 5 5 5 5 5 5 5 5 5 5 5 5 5 5 5 5 5 5 5 5 5 5 5 5 5 5 5 5 5 5 5 5 5 5 5 5 5 5 5 5 5 5 5 5 5 5 5 5 5 5 5 5 5 5 5 5 5 5 5 5 5 5 5 5 5 5 5 5 5 5 5 5 5 5 5 5 5 5 5 5 5 5 5 5 5 5 5 5 5 5 5 5 5 5 5 5 5 5 5 5 5 5 5 5 5 5 5 5 5 5 5 5 5 5 5 5 5 5 5 5 5 5 5 5 5 5 5 5 5 5 5 5 5 5 5 5 5 5 5 5 5 5 5 5 5 5 5 5 5 5 5 5 5 5 5 5 5 5 5 5 5 5 5 5 5 5 5 5 5 5 5 5 5 5 5 5 5 5 5 5 5 5 5 5 5 5 5 5 5 5 5 5 5 5 </DataArray>
</Cells>
<PointData  Vectors="u"> 
<DataArray  type="Float32"  Name="u"  NumberOfComponents="3" format="ascii">-6.769610e-08 6.154130e-08 0.000000e+00  -1.238293e-08 1.165482e-08 0.000000e+00  -1.851427e-08 2.976249e-08 0.000000e+00  6.403800e-08 -1.414214e+00 0.000000e+00  -1.268691e-08 4.264974e-08 0.000000e+00  2.000000e+00 -2.995756e-08 0.000000e+00  -2.338669e-08 -1.602010e-08 0.000000e+00  -2.455570e-08 1.414214e+00 0.000000e+00  2.213759e-09 -3.274860e-08 0.000000e+00  -4.032068e-09 -1.079790e-08 0.000000e+00  -3.693419e-01 6.765710e-02 0.000000e+00  -3.750000e-01 -1.250000e-01 0.000000e+00  -2.822408e-09 5.303301e-01 0.000000e+00  9.560645e-10 -8.338395e-01 0.000000e+00  -3.644012e-01 -3.639189e-08 0.000000e+00  -1.355875e-08 -1.349181e+00 0.000000e+00  2.736604e-01 -4.546712e-01 0.000000e+00  1.543628e+00 2.108138e-08 0.000000e+00  1.767767e-01 -1.078719e-08 0.000000e+00  2.736603e-01 4.546712e-01 0.000000e+00  -3.750000e-01 1.250000e-01 0.000000e+00  2.888616e-08 1.349181e+00 0.000000e+00  1.543628e+00 2.058214e-08 0.000000e+00  -1.888553e-08 -8.338395e-01 0.000000e+00  3.693419e-01 6.765706e-02 0.000000e+00  3.644012e-01 3.829741e-08 0.000000e+00  2.968121e-08 5.303301e-01 0.000000e+00  -3.894912e-01 5.761492e-01 0.000000e+00  -3.196982e-08 9.375001e-01 0.000000e+00  -6.629126e-01 4.861359e-01 0.000000e+00  -2.690758e-01 3.932119e-01 0.000000e+00  -1.908740e-08 2.525908e-01 0.000000e+00  -2.372300e-01 1.965142e-01 0.000000e+00  -3.946064e-01 3.147442e-02 0.000000e+00  -1.786086e-01 -7.399500e-01 0.000000e+00  -2.485879e-01 -5.439829e-01 0.000000e+00  -3.595918e-01 4.502196e-02 0.000000e+00  -2.325923e-01 1.501373e-08 0.000000e+00  -2.942022e-01 -1.727883e-01 0.000000e+00  -3.093592e-01 3.066143e-09 0.000000e+00  -1.227697e-08 -4.375000e-01 0.000000e+00  -2.775339e-01 -3.516306e-01 0.000000e+00  -5.404852e-10 -1.171520e+00 0.000000e+00  -1.614792e-01 -3.490562e-01 0.000000e+00  -4.253068e-01 2.532545e-02 0.000000e+00  -2.932515e-02 -8.794768e-01 0.000000e+00  1.273015e-08 -1.500455e+00 0.000000e+00  2.138633e-01 -8.601701e-01 0.000000e+00  5.385617e-01 -5.888529e-01 0.000000e+00  1.768920e-08 -8.750000e-01 0.000000e+00  2.245642e-01 -1.648458e-01 0.000000e+00  -6.875001e-01 -3.512399e-08 0.000000e+00  8.568725e-01 -3.474704e-01 0.000000e+00  9.280776e-01 -7.499846e-09 0.000000e+00  1.006538e+00 -1.550422e-01 0.000000e+00  1.046447e+00 4.597366e-08 0.000000e+00  1.889371e+00 -5.248120e-09 0.000000e+00  -4.253068e-01 -2.532540e-02 0.000000e+00  -6.629126e-01 -4.861359e-01 0.000000e+00  2.245642e-01 1.648458e-01 0.000000e+00  1.006538e+00 1.550421e-01 0.000000e+00  -1.614792e-01 3.490562e-01 0.000000e+00  -1.786087e-01 7.399500e-01 0.000000e+00  -2.932517e-02 8.794768e-01 0.000000e+00  8.568725e-01 3.474703e-01 0.000000e+00  1.889371e+00 2.978035e-08 0.000000e+00  5.385617e-01 5.888529e-01 0.000000e+00  9.280777e-01 9.039299e-09 0.000000e+00  8.486435e-09 8.750000e-01 0.000000e+00  2.138633e-01 8.601701e-01 0.000000e+00  -1.981963e-08 1.500455e+00 0.000000e+00  3.946064e-01 3.147439e-02 0.000000e+00  3.894912e-01 5.761492e-01 0.000000e+00  2.485879e-01 -5.439829e-01 0.000000e+00  5.791156e-09 -1.171520e+00 0.000000e+00  2.775340e-01 -3.516306e-01 0.000000e+00  2.942021e-01 -1.727883e-01 0.000000e+00  6.165935e-09 -4.375000e-01 0.000000e+00  2.690757e-01 3.932119e-01 0.000000e+00  -7.721860e-09 9.375001e-01 0.000000e+00  3.595918e-01 4.502190e-02 0.000000e+00  3.093592e-01 -1.582597e-08 0.000000e+00  2.372300e-01 1.965142e-01 0.000000e+00  -6.611729e-09 2.525908e-01 0.000000e+00  2.325922e-01 4.361818e-09 0.000000e+00  -4.805755e-01 1.025022e+00 0.000000e+00  -9.843750e-01 9.218750e-01 0.000000e+00  -1.573283e-07 1.392116e+00 0.000000e+00  -5.239908e-01 6.056284e-01 0.000000e+00  -4.961604e-01 1.714009e-01 0.000000e+00  -4.723483e-01 2.743640e-01 0.000000e+00  -2.603080e-01 8.209624e-01 0.000000e+00  -2.092237e-08 7.016768e-01 0.000000e+00  -1.821155e-01 6.424333e-01 0.000000e+00  -1.265644e-01 2.382389e-01 0.000000e+00  -1.235069e-01 1.184863e-01 0.000000e+00  1.222694e-07 1.252788e-01 0.000000e+00  -2.476598e-01 2.945985e-01 0.000000e+00  -3.266735e-01 1.914171e-01 0.000000e+00  -3.437499e-01 2.460937e-01 0.000000e+00  -1.338175e-01 3.618659e-01 0.000000e+00  -1.467160e-08 3.854026e-01 0.000000e+00  -1.491710e-01 4.938919e-01 0.000000e+00  -2.212665e-01 -6.438017e-01 0.000000e+00  -1.164864e-01 -9.684420e-01 0.000000e+00  -8.858550e-02 -1.068931e+00 0.000000e+00  -3.353324e-01 -2.507330e-01 0.000000e+00  -3.433540e-01 -1.849653e-01 0.000000e+00  -3.811748e-01 6.076703e-02 0.000000e+00  -3.152852e-01 -3.322746e-01 0.000000e+00  -2.725207e-01 -4.262505e-01 0.000000e+00  -3.992785e-01 -2.961629e-02 0.000000e+00  -3.736657e-01 2.888446e-01 0.000000e+00  -4.192502e-01 3.063106e-01 0.000000e+00  -3.106713e-01 4.907048e-01 0.000000e+00  -2.330507e-01 9.854856e-02 0.000000e+00  -1.228082e-01 -3.100227e-07 0.000000e+00  -3.183686e-01 1.307672e-01 0.000000e+00  -3.621732e-01 6.057039e-02 0.000000e+00  -3.157868e-01 6.662485e-02 0.000000e+00  -3.169229e-01 4.172469e-08 0.000000e+00  -3.606564e-01 2.422747e-02 0.000000e+00  -1.840512e-01 -1.517914e-01 0.000000e+00  1.194242e-08 -2.232767e-01 0.000000e+00  -1.900514e-01 -3.447331e-08 0.000000e+00  -1.776591e-01 -3.000528e-01 0.000000e+00  6.299461e-09 -6.415811e-01 0.000000e+00  -1.705238e-01 -4.447712e-01 0.000000e+00  -3.017292e-01 -8.614883e-02 0.000000e+00  -3.648601e-01 4.954882e-08 0.000000e+00  -3.584885e-01 -2.713159e-02 0.000000e+00  -1.366729e-01 -8.505336e-01 0.000000e+00  -3.982961e-08 -1.307984e+00 0.000000e+00  -2.658937e-01 -4.459451e-01 0.000000e+00  -3.468111e-01 -1.331123e-01 0.000000e+00  -1.512338e-01 -7.215911e-01 0.000000e+00  -3.399895e-08 -1.011730e+00 0.000000e+00  -1.620400e-01 -5.856138e-01 0.000000e+00  -3.496268e-01 -9.159574e-02 0.000000e+00  -2.864155e-01 -2.609057e-01 0.000000e+00  -3.533844e-01 -5.709664e-02 0.000000e+00  -6.370255e-01 2.374973e-01 0.000000e+00  -9.690248e-01 3.453858e-01 0.000000e+00  -4.361897e-01 1.681379e-02 0.000000e+00  -2.991899e-01 -2.405760e-01 0.000000e+00  -2.747111e-01 -1.330452e-01 0.000000e+00  -3.482247e-02 -2.395983e-01 0.000000e+00  3.314568e-02 -4.253689e-01 0.000000e+00  -5.107848e-02 -1.143107e+00 0.000000e+00  1.501091e-08 -1.481661e+00 0.000000e+00  -1.156540e-01 -8.227908e-01 0.000000e+00  -1.964706e-01 -5.215210e-01 0.000000e+00  -2.695762e-03 -1.180117e+00 0.000000e+00  8.265220e-08 -1.459926e+00 0.000000e+00  5.701201e-02 -1.168181e+00 0.000000e+00  2.994918e-01 -7.267623e-01 0.000000e+00  2.337777e-08 -4.920502e-01 0.000000e+00  3.987166e-01 -4.120792e-01 0.000000e+00  2.088938e-01 -9.517503e-01 0.000000e+00  -6.869114e-08 -1.157571e+00 0.000000e+00  1.277772e-01 -1.095659e+00 0.000000e+00  3.671624e-01 -7.606668e-01 0.000000e+00  4.791627e-01 -5.860427e-01 0.000000e+00  2.611514e-01 -6.453025e-01 0.000000e+00  -8.129287e-02 -6.009767e-01 0.000000e+00  8.096077e-02 -8.961864e-01 0.000000e+00  7.264945e-02 -6.469515e-01 0.000000e+00  -5.961800e-01 7.992762e-02 0.000000e+00  -1.303728e+00 -1.352246e-07 0.000000e+00  -1.225172e-01 -1.022046e-01 0.000000e+00  2.578125e-01 -2.929689e-01 0.000000e+00  -2.058937e-01 -2.556793e-02 0.000000e+00  -2.423974e-01 9.827808e-08 0.000000e+00  1.910548e-01 -7.077327e-02 0.000000e+00  7.260681e-01 -3.373967e-01 0.000000e+00  5.058124e-01 9.513246e-08 0.000000e+00  7.223607e-01 -4.621493e-01 0.000000e+00  5.504223e-01 -4.298944e-01 0.000000e+00  9.874898e-01 -2.682887e-01 0.000000e+00  1.272193e+00 -2.653873e-08 0.000000e+00  1.188839e+00 -2.049317e-01 0.000000e+00  1.493091e+00 -4.625034e-02 0.000000e+00  1.972577e+00 5.395612e-08 0.000000e+00  1.511696e+00 -1.570380e-08 0.000000e+00  1.435887e+00 -9.473618e-02 0.000000e+00  1.747725e+00 -4.597068e-08 0.000000e+00  1.336271e+00 -1.472520e-01 0.000000e+00  1.037038e+00 -7.467937e-02 0.000000e+00  6.028090e-01 -1.727169e-08 0.000000e+00  6.037246e-01 -8.401462e-02 0.000000e+00  5.882539e-01 -2.941590e-01 0.000000e+00  9.490304e-01 -2.452631e-01 0.000000e+00  6.022497e-01 -1.796331e-01 0.000000e+00  -9.690249e-01 -3.453857e-01 0.000000e+00  -9.843748e-01 -9.218750e-01 0.000000e+00  -5.961799e-01 -7.992756e-02 0.000000e+00  -2.058937e-01 2.556795e-02 0.000000e+00  -6.370255e-01 -2.374973e-01 0.000000e+00  -4.961604e-01 -1.714009e-01 0.000000e+00  -4.361897e-01 -1.681385e-02 0.000000e+00  1.037038e+00 7.467919e-02 0.000000e+00  1.493091e+00 4.625035e-02 0.000000e+00  6.037246e-01 8.401459e-02 0.000000e+00  1.910547e-01 7.077325e-02 0.000000e+00  6.022495e-01 1.796332e-01 0.000000e+00  5.882539e-01 2.941589e-01 0.000000e+00  2.578126e-01 2.929688e-01 0.000000e+00  -1.156541e-01 8.227907e-01 0.000000e+00  -5.107855e-02 1.143107e+00 0.000000e+00  -8.858540e-02 1.068931e+00 0.000000e+00  -8.129284e-02 6.009768e-01 0.000000e+00  7.264939e-02 6.469514e-01 0.000000e+00  3.314578e-02 4.253689e-01 0.000000e+00  -1.964705e-01 5.215212e-01 0.000000e+00  -2.725207e-01 4.262504e-01 0.000000e+00  -2.991902e-01 2.405759e-01 0.000000e+00  -1.225171e-01 1.022045e-01 0.000000e+00  -3.482231e-02 2.395984e-01 0.000000e+00  -2.747111e-01 1.330449e-01 0.000000e+00  1.435887e+00 9.473609e-02 0.000000e+00  1.972577e+00 3.970133e-08 0.000000e+00  9.490303e-01 2.452632e-01 0.000000e+00  5.504223e-01 4.298945e-01 0.000000e+00  1.336271e+00 1.472520e-01 0.000000e+00  1.747725e+00 4.701340e-08 0.000000e+00  1.188839e+00 2.049316e-01 0.000000e+00  3.987167e-01 4.120791e-01 0.000000e+00  4.967624e-08 4.920501e-01 0.000000e+00  5.058123e-01 -9.197474e-09 0.000000e+00  2.994919e-01 7.267624e-01 0.000000e+00  -1.031075e-07 1.157571e+00 0.000000e+00  2.088937e-01 9.517504e-01 0.000000e+00  7.260680e-01 3.373967e-01 0.000000e+00  1.272193e+00 -7.085869e-08 0.000000e+00  9.874898e-01 2.682887e-01 0.000000e+00  -2.695768e-03 1.180117e+00 0.000000e+00  2.617339e-07 1.481661e+00 0.000000e+00  8.096095e-02 8.961864e-01 0.000000e+00  2.611515e-01 6.453025e-01 0.000000e+00  5.701206e-02 1.168181e+00 0.000000e+00  3.337189e-08 1.459926e+00 0.000000e+00  1.277772e-01 1.095659e+00 0.000000e+00  4.791627e-01 5.860427e-01 0.000000e+00  3.671623e-01 7.606667e-01 0.000000e+00  7.223607e-01 4.621493e-01 0.000000e+00  5.239907e-01 6.056285e-01 0.000000e+00  4.805755e-01 1.025022e+00 0.000000e+00  4.723482e-01 2.743641e-01 0.000000e+00  3.992786e-01 -2.961620e-02 0.000000e+00  4.192502e-01 3.063106e-01 0.000000e+00  3.736656e-01 2.888447e-01 0.000000e+00  3.811747e-01 6.076691e-02 0.000000e+00  1.164863e-01 -9.684421e-01 0.000000e+00  -5.260403e-08 -1.307984e+00 0.000000e+00  2.212666e-01 -6.438016e-01 0.000000e+00  3.152852e-01 -3.322745e-01 0.000000e+00  1.366729e-01 -8.505335e-01 0.000000e+00  1.356235e-08 -1.011730e+00 0.000000e+00  1.512338e-01 -7.215911e-01 0.000000e+00  1.776591e-01 -3.000529e-01 0.000000e+00  4.759700e-08 -2.232766e-01 0.000000e+00  1.840512e-01 -1.517914e-01 0.000000e+00  1.705238e-01 -4.447711e-01 0.000000e+00  2.255050e-08 -6.415811e-01 0.000000e+00  1.620400e-01 -5.856140e-01 0.000000e+00  2.864155e-01 -2.609056e-01 0.000000e+00  3.496269e-01 -9.159571e-02 0.000000e+00  3.468111e-01 -1.331122e-01 0.000000e+00  3.353325e-01 -2.507329e-01 0.000000e+00  2.658936e-01 -4.459451e-01 0.000000e+00  3.433540e-01 -1.849653e-01 0.000000e+00  2.603081e-01 8.209625e-01 0.000000e+00  2.226894e-07 1.392116e+00 0.000000e+00  3.106713e-01 4.907047e-01 0.000000e+00  3.437501e-01 2.460937e-01 0.000000e+00  1.821155e-01 6.424332e-01 0.000000e+00  -1.104016e-08 7.016768e-01 0.000000e+00  1.491710e-01 4.938917e-01 0.000000e+00  3.017293e-01 -8.614884e-02 0.000000e+00  1.900514e-01 6.108244e-08 0.000000e+00  3.533844e-01 -5.709660e-02 0.000000e+00  3.621732e-01 6.057059e-02 0.000000e+00  3.584885e-01 -2.713156e-02 0.000000e+00  3.648601e-01 -9.684444e-09 0.000000e+00  3.606563e-01 2.422745e-02 0.000000e+00  1.235069e-01 1.184862e-01 0.000000e+00  1.228082e-01 1.616405e-08 0.000000e+00  2.025184e-08 1.252787e-01 0.000000e+00  2.330507e-01 9.854848e-02 0.000000e+00  3.169230e-01 -3.674978e-08 0.000000e+00  3.157868e-01 6.662476e-02 0.000000e+00  1.265645e-01 2.382389e-01 0.000000e+00  -1.147307e-07 3.854025e-01 0.000000e+00  1.338175e-01 3.618660e-01 0.000000e+00  3.266736e-01 1.914171e-01 0.000000e+00  3.183686e-01 1.307672e-01 0.000000e+00  2.476599e-01 2.945986e-01 0.000000e+00  </DataArray> 
</PointData> 
</Piece>
</UnstructuredGrid>
</VTKFile>