<?xml version="1.0"?>
<VTKFile type="UnstructuredGrid"  version="0.1"  >
<UnstructuredGrid>
<Piece  NumberOfPoints="4257" NumberOfCells="8192">
<Points>
<DataArray  type="Float32"  NumberOfComponents="3"  format="ascii">0 0 0  1 0 0  1 1 0  0 1 0  -1 1 0  -1 0 0  -1 -1 0  0 -1 0  1 -1 0  1 0 0  0.5 0.5 0  0 0.5 0  0.5 0 0  0.5 1 0  1 0.5 0  -0.5 1 0  -0.5 0.5 0  -1 0.5 0  -0.5 0 0  -0.5 -0.5 0  0 -0.5 0  -0.5 -1 0  -1 -0.5 0  0.5 -1 0  0.5 -0.5 0  1 -0.5 0  0.5 0 0  0.25 0.25 0  0.25 0 0  0 0.25 0  0.5 0.25 0  0.75 0 0  0.75 0.25 0  0.25 0.5 0  0 0.75 0  0.25 0.75 0  0.75 0.5 0  1 0.25 0  0.75 0.75 0  1 0.75 0  0.75 1 0  0.5 0.75 0  0.25 1 0  -0.25 0.5 0  -0.25 0.25 0  -0.25 0.75 0  -0.25 1 0  -0.5 0.75 0  -0.75 0.75 0  -0.75 1 0  -0.5 0.25 0  -0.25 0 0  -0.75 0.5 0  -1 0.75 0  -0.75 0.25 0  -0.75 0 0  -1 0.25 0  -0.25 -0.25 0  0 -0.25 0  -0.5 -0.25 0  -0.75 -0.25 0  -0.25 -0.5 0  0 -0.75 0  -0.25 -0.75 0  -0.75 -0.5 0  -1 -0.25 0  -0.75 -0.75 0  -1 -0.75 0  -0.75 -1 0  -0.5 -0.75 0  -0.25 -1 0  0.25 -0.5 0  0.25 -0.25 0  0.25 -0.75 0  0.25 -1 0  0.5 -0.75 0  0.75 -0.75 0  0.75 -1 0  0.5 -0.25 0  0.25 0 0  0.75 -0.5 0  1 -0.75 0  0.75 -0.25 0  0.75 0 0  1 -0.25 0  0.125 0.125 0  0 0.125 0  0.125 0 0  0.125 0.25 0  0 0.375 0  0.125 0.375 0  0.25 0.125 0  0.375 0 0  0.375 0.125 0  0.75 0.125 0  0.875 0.125 0  0.875 0 0  0.625 0.25 0  0.625 0.375 0  0.5 0.375 0  0.625 0.125 0  0.625 0 0  0.5 0.125 0  0.125 0.75 0  0.125 0.875 0  0 0.875 0  0.25 0.625 0  0.375 0.625 0  0.375 0.5 0  0.125 0.625 0  0 0.625 0  0.125 0.5 0  0.375 0.375 0  0.25 0.375 0  0.375 0.25 0  0.875 0.25 0  1 0.125 0  0.75 0.375 0  0.625 0.5 0  0.875 0.375 0  1 0.375 0  0.875 0.5 0  0.875 0.875 0  0.875 1 0  1 0.875 0  0.75 0.875 0  0.625 1 0  0.625 0.875 0  0.875 0.75 0  1 0.625 0  0.875 0.625 0  0.25 0.875 0  0.125 1 0  0.375 0.75 0  0.5 0.625 0  0.375 0.875 0  0.375 1 0  0.5 0.875 0  0.625 0.625 0  0.625 0.75 0  0.75 0.625 0  -0.125 0.25 0  -0.125 0.125 0  -0.125 0.375 0  -0.125 0.5 0  -0.25 0.375 0  -0.375 0.375 0  -0.375 0.5 0  -0.125 0.875 0  -0.125 1 0  -0.125 0.75 0  -0.125 0.625 0  -0.25 0.875 0  -0.375 1 0  -0.375 0.875 0  -0.75 0.875 0  -0.875 1 0  -0.875 0.875 0  -0.625 0.875 0  -0.625 1 0  -0.5 0.875 0  -0.625 0.75 0  -0.625 0.625 0  -0.5 0.625 0  -0.25 0.625 0  -0.375 0.75 0  -0.375 0.625 0  -0.25 0.125 0  -0.125 0 0  -0.375 0.25 0  -0.5 0.375 0  -0.375 0.125 0  -0.375 0 0  -0.5 0.125 0  -0.875 0.75 0  -1 0.875 0  -0.75 0.625 0  -0.625 0.5 0  -0.875 0.625 0  -1 0.625 0  -0.875 0.5 0  -0.875 0.125 0  -1 0.125 0  -0.875 0 0  -0.875 0.25 0  -1 0.375 0  -0.875 0.375 0  -0.75 0.125 0  -0.625 0 0  -0.625 0.125 0  -0.625 0.375 0  -0.75 0.375 0  -0.625 0.25 0  -0.125 -0.125 0  0 -0.125 0  -0.25 -0.125 0  -0.375 -0.125 0  -0.125 -0.25 0  0 -0.375 0  -0.125 -0.375 0  -0.75 -0.125 0  -0.875 -0.125 0  -0.625 -0.125 0  -0.5 -0.125 0  -0.625 -0.25 0  -0.625 -0.375 0  -0.5 -0.375 0  -0.125 -0.75 0  -0.125 -0.875 0  0 -0.875 0  -0.25 -0.625 0  -0.375 -0.625 0  -0.375 -0.5 0  -0.125 -0.625 0  0 -0.625 0  -0.125 -0.5 0  -0.375 -0.25 0  -0.375 -0.375 0  -0.25 -0.375 0  -0.875 -0.25 0  -1 -0.125 0  -0.75 -0.375 0  -0.625 -0.5 0  -0.875 -0.375 0  -1 -0.375 0  -0.875 -0.5 0  -0.875 -0.875 0  -0.875 -1 0  -1 -0.875 0  -0.75 -0.875 0  -0.625 -1 0  -0.625 -0.875 0  -0.875 -0.75 0  -1 -0.625 0  -0.875 -0.625 0  -0.25 -0.875 0  -0.125 -1 0  -0.375 -0.75 0  -0.5 -0.625 0  -0.375 -0.875 0  -0.375 -1 0  -0.5 -0.875 0  -0.625 -0.625 0  -0.625 -0.75 0  -0.75 -0.625 0  0.125 -0.25 0  0.125 -0.125 0  0.125 -0.375 0  0.125 -0.5 0  0.25 -0.375 0  0.375 -0.375 0  0.375 -0.5 0  0.125 -0.875 0  0.125 -1 0  0.125 -0.75 0  0.125 -0.625 0  0.25 -0.875 0  0.375 -1 0  0.375 -0.875 0  0.75 -0.875 0  0.875 -1 0  0.875 -0.875 0  0.625 -0.875 0  0.625 -1 0  0.5 -0.875 0  0.625 -0.75 0  0.625 -0.625 0  0.5 -0.625 0  0.25 -0.625 0  0.375 -0.75 0  0.375 -0.625 0  0.25 -0.125 0  0.125 0 0  0.375 -0.25 0  0.5 -0.375 0  0.375 -0.125 0  0.375 0 0  0.5 -0.125 0  0.875 -0.75 0  1 -0.875 0  0.75 -0.625 0  0.625 -0.5 0  0.875 -0.625 0  1 -0.625 0  0.875 -0.5 0  0.875 -0.125 0  1 -0.125 0  0.875 0 0  0.875 -0.25 0  1 -0.375 0  0.875 -0.375 0  0.75 -0.125 0  0.625 0 0  0.625 -0.125 0  0.625 -0.375 0  0.75 -0.375 0  0.625 -0.25 0  0.0625 0.0625 0  0.0625 0 0  0 0.0625 0  0.125 0.0625 0  0.1875 0 0  0.1875 0.0625 0  0.0625 0.125 0  0 0.1875 0  0.0625 0.1875 0  0.0625 0.375 0  0.0625 0.4375 0  0 0.4375 0  0.125 0.3125 0  0.1875 0.3125 0  0.1875 0.25 0  0.0625 0.3125 0  0 0.3125 0  0.0625 0.25 0  0.375 0.0625 0  0.4375 0.0625 0  0.4375 0 0  0.3125 0.125 0  0.3125 0.1875 0  0.25 0.1875 0  0.3125 0.0625 0  0.3125 0 0  0.25 0.0625 0  0.1875 0.1875 0  0.1875 0.125 0  0.125 0.1875 0  0.875 0.0625 0  0.9375 0 0  0.9375 0.0625 0  0.8125 0.0625 0  0.8125 0 0  0.75 0.0625 0  0.8125 0.125 0  0.8125 0.1875 0  0.75 0.1875 0  0.5625 0.375 0  0.5 0.4375 0  0.5625 0.4375 0  0.5625 0.3125 0  0.5 0.3125 0  0.5625 0.25 0  0.625 0.3125 0  0.6875 0.3125 0  0.6875 0.25 0  0.5625 0.0625 0  0.5 0.0625 0  0.5625 0 0  0.5625 0.125 0  0.5 0.1875 0  0.5625 0.1875 0  0.625 0.0625 0  0.6875 0 0  0.6875 0.0625 0  0.625 0.1875 0  0.6875 0.125 0  0.6875 0.1875 0  0.0625 0.875 0  0 0.9375 0  0.0625 0.9375 0  0.0625 0.8125 0  0 0.8125 0  0.0625 0.75 0  0.125 0.8125 0  0.1875 0.8125 0  0.1875 0.75 0  0.375 0.5625 0  0.4375 0.5 0  0.4375 0.5625 0  0.3125 0.5625 0  0.3125 0.5 0  0.25 0.5625 0  0.3125 0.625 0  0.3125 0.6875 0  0.25 0.6875 0  0.0625 0.5625 0  0.0625 0.5 0  0 0.5625 0  0.125 0.5625 0  0.1875 0.5 0  0.1875 0.5625 0  0.0625 0.625 0  0 0.6875 0  0.0625 0.6875 0  0.1875 0.625 0  0.125 0.6875 0  0.1875 0.6875 0  0.4375 0.4375 0  0.4375 0.375 0  0.4375 0.3125 0  0.375 0.4375 0  0.3125 0.4375 0  0.125 0.4375 0  0.1875 0.375 0  0.25 0.3125 0  0.1875 0.4375 0  0.25 0.4375 0  0.4375 0.125 0  0.375 0.1875 0  0.3125 0.25 0  0.4375 0.1875 0  0.4375 0.25 0  0.3125 0.3125 0  0.375 0.3125 0  0.3125 0.375 0  0.9375 0.125 0  1 0.0625 0  0.875 0.1875 0  0.8125 0.25 0  0.9375 0.1875 0  1 0.1875 0  0.9375 0.25 0  0.625 0.4375 0  0.5625 0.5 0  0.6875 0.375 0  0.75 0.3125 0  0.6875 0.4375 0  0.6875 0.5 0  0.75 0.4375 0  0.9375 0.4375 0  0.9375 0.5 0  1 0.4375 0  0.875 0.4375 0  0.8125 0.5 0  0.8125 0.4375 0  0.9375 0.375 0  1 0.3125 0  0.9375 0.3125 0  0.8125 0.3125 0  0.8125 0.375 0  0.875 0.3125 0  0.9375 0.9375 0  1 0.9375 0  0.9375 1 0  0.9375 0.875 0  1 0.8125 0  0.9375 0.8125 0  0.875 0.9375 0  0.8125 1 0  0.8125 0.9375 0  0.625 0.9375 0  0.5625 0.9375 0  0.5625 1 0  0.6875 0.875 0  0.6875 0.8125 0  0.75 0.8125 0  0.6875 0.9375 0  0.6875 1 0  0.75 0.9375 0  0.9375 0.625 0  0.9375 0.5625 0  1 0.5625 0  0.875 0.6875 0  0.8125 0.6875 0  0.8125 0.75 0  0.9375 0.6875 0  1 0.6875 0  0.9375 0.75 0  0.8125 0.8125 0  0.875 0.8125 0  0.8125 0.875 0  0.125 0.9375 0  0.0625 1 0  0.1875 0.875 0  0.25 0.8125 0  0.1875 0.9375 0  0.1875 1 0  0.25 0.9375 0  0.4375 0.625 0  0.5 0.5625 0  0.375 0.6875 0  0.3125 0.75 0  0.4375 0.6875 0  0.5 0.6875 0  0.4375 0.75 0  0.4375 0.9375 0  0.5 0.9375 0  0.4375 1 0  0.4375 0.875 0  0.5 0.8125 0  0.4375 0.8125 0  0.375 0.9375 0  0.3125 1 0  0.3125 0.9375 0  0.3125 0.8125 0  0.375 0.8125 0  0.3125 0.875 0  0.5625 0.5625 0  0.625 0.5625 0  0.6875 0.5625 0  0.5625 0.625 0  0.5625 0.6875 0  0.5625 0.875 0  0.625 0.8125 0  0.6875 0.75 0  0.5625 0.8125 0  0.5625 0.75 0  0.875 0.5625 0  0.8125 0.5625 0  0.75 0.5625 0  0.8125 0.625 0  0.75 0.6875 0  0.6875 0.625 0  0.6875 0.6875 0  0.625 0.6875 0  -0.0625 0.125 0  -0.0625 0.0625 0  -0.0625 0.1875 0  -0.0625 0.25 0  -0.125 0.1875 0  -0.1875 0.1875 0  -0.1875 0.25 0  -0.0625 0.4375 0  -0.0625 0.5 0  -0.0625 0.375 0  -0.0625 0.3125 0  -0.125 0.4375 0  -0.1875 0.5 0  -0.1875 0.4375 0  -0.375 0.4375 0  -0.4375 0.5 0  -0.4375 0.4375 0  -0.3125 0.4375 0  -0.3125 0.5 0  -0.25 0.4375 0  -0.3125 0.375 0  -0.3125 0.3125 0  -0.25 0.3125 0  -0.125 0.3125 0  -0.1875 0.375 0  -0.1875 0.3125 0  -0.0625 0.9375 0  -0.0625 1 0  -0.0625 0.875 0  -0.0625 0.8125 0  -0.125 0.9375 0  -0.1875 1 0  -0.1875 0.9375 0  -0.0625 0.625 0  -0.0625 0.5625 0  -0.0625 0.6875 0  -0.0625 0.75 0  -0.125 0.6875 0  -0.1875 0.6875 0  -0.1875 0.75 0  -0.375 0.9375 0  -0.4375 0.9375 0  -0.4375 1 0  -0.3125 0.875 0  -0.3125 0.8125 0  -0.25 0.8125 0  -0.3125 0.9375 0  -0.3125 1 0  -0.25 0.9375 0  -0.125 0.8125 0  -0.1875 0.8125 0  -0.1875 0.875 0  -0.875 0.9375 0  -0.9375 0.9375 0  -0.9375 1 0  -0.8125 0.875 0  -0.8125 0.8125 0  -0.75 0.8125 0  -0.8125 0.9375 0  -0.8125 1 0  -0.75 0.9375 0  -0.5625 0.9375 0  -0.5 0.9375 0  -0.5625 1 0  -0.5625 0.875 0  -0.5 0.8125 0  -0.5625 0.8125 0  -0.625 0.9375 0  -0.6875 1 0  -0.6875 0.9375 0  -0.5625 0.625 0  -0.5 0.5625 0  -0.5625 0.5625 0  -0.5625 0.6875 0  -0.5 0.6875 0  -0.5625 0.75 0  -0.625 0.6875 0  -0.6875 0.6875 0  -0.6875 0.75 0  -0.625 0.8125 0  -0.6875 0.8125 0  -0.6875 0.875 0  -0.125 0.5625 0  -0.1875 0.5625 0  -0.25 0.5625 0  -0.1875 0.625 0  -0.25 0.6875 0  -0.4375 0.875 0  -0.375 0.8125 0  -0.3125 0.75 0  -0.4375 0.8125 0  -0.4375 0.75 0  -0.4375 0.5625 0  -0.375 0.5625 0  -0.3125 0.5625 0  -0.4375 0.625 0  -0.4375 0.6875 0  -0.3125 0.625 0  -0.3125 0.6875 0  -0.375 0.6875 0  -0.125 0.0625 0  -0.0625 0 0  -0.1875 0.125 0  -0.25 0.1875 0  -0.1875 0.0625 0  -0.1875 0 0  -0.25 0.0625 0  -0.4375 0.375 0  -0.5 0.4375 0  -0.375 0.3125 0  -0.3125 0.25 0  -0.4375 0.3125 0  -0.5 0.3125 0  -0.4375 0.25 0  -0.4375 0.0625 0  -0.5 0.0625 0  -0.4375 0 0  -0.4375 0.125 0  -0.5 0.1875 0  -0.4375 0.1875 0  -0.375 0.0625 0  -0.3125 0 0  -0.3125 0.0625 0  -0.3125 0.1875 0  -0.375 0.1875 0  -0.3125 0.125 0  -0.9375 0.875 0  -1 0.9375 0  -0.875 0.8125 0  -0.8125 0.75 0  -0.9375 0.8125 0  -1 0.8125 0  -0.9375 0.75 0  -0.625 0.5625 0  -0.5625 0.5 0  -0.6875 0.625 0  -0.75 0.6875 0  -0.6875 0.5625 0  -0.6875 0.5 0  -0.75 0.5625 0  -0.9375 0.5625 0  -0.9375 0.5 0  -1 0.5625 0  -0.875 0.5625 0  -0.8125 0.5 0  -0.8125 0.5625 0  -0.9375 0.625 0  -1 0.6875 0  -0.9375 0.6875 0  -0.8125 0.6875 0  -0.8125 0.625 0  -0.875 0.6875 0  -0.9375 0.0625 0  -0.9375 0 0  -1 0.0625 0  -0.875 0.0625 0  
[...]
<PointData  Vectors="u"> 
<DataArray  type="Float32"  Name="u"  NumberOfComponents="3" format="ascii">-2.213695e-07 -2.006722e-08 0.000000e+00  -1.305587e-08 1.063962e-08 0.000000e+00  -9.432109e-09 -6.593590e-09 0.000000e+00  -4.537161e-09 -1.414214e+00 0.000000e+00  4.399039e-09 -1.317184e-08 0.000000e+00  2.000000e+00 7.945371e-10 0.000000e+00  2.148445e-08 1.863943e-08 0.000000e+00  -1.165547e-09 1.414214e+00 0.000000e+00  -2.604787e-09 5.185270e-09 0.000000e+00  -6.243472e-09 -7.294365e-09 0.000000e+00  -3.693419e-01 6.765705e-02 0.000000e+00  -3.750000e-01 -1.250000e-01 0.000000e+00  -1.354933e-09 -5.303301e-01 0.000000e+00  -7.494038e-10 -8.338395e-01 0.000000e+00  -3.644012e-01 -2.835751e-09 0.000000e+00  5.665148e-10 -1.349181e+00 0.000000e+00  2.736603e-01 -4.546712e-01 0.000000e+00  1.543628e+00 1.161893e-09 0.000000e+00  1.767767e-01 -2.078547e-09 0.000000e+00  2.736604e-01 4.546712e-01 0.000000e+00  -3.750000e-01 1.250000e-01 0.000000e+00  7.101093e-09 1.349181e+00 0.000000e+00  1.543628e+00 1.199907e-10 0.000000e+00  -8.690286e-10 8.338395e-01 0.000000e+00  -3.693419e-01 -6.765707e-02 0.000000e+00  -3.644012e-01 -1.884499e-09 0.000000e+00  -4.223308e-10 -5.303301e-01 0.000000e+00  -3.894912e-01 5.761492e-01 0.000000e+00  -5.012494e-08 -9.374999e-01 0.000000e+00  -6.629126e-01 4.861359e-01 0.000000e+00  -2.690758e-01 3.932119e-01 0.000000e+00  -8.950764e-09 -2.525907e-01 0.000000e+00  -2.372300e-01 1.965142e-01 0.000000e+00  -3.946064e-01 3.147435e-02 0.000000e+00  -1.786086e-01 -7.399500e-01 0.000000e+00  -2.485879e-01 -5.439828e-01 0.000000e+00  -3.595917e-01 4.502191e-02 0.000000e+00  -2.325923e-01 -1.814135e-09 0.000000e+00  -2.942021e-01 -1.727883e-01 0.000000e+00  -3.093592e-01 -2.284380e-09 0.000000e+00  -4.028103e-10 -4.375000e-01 0.000000e+00  -2.775340e-01 -3.516306e-01 0.000000e+00  -3.449907e-09 -1.171520e+00 0.000000e+00  -1.614792e-01 -3.490562e-01 0.000000e+00  -4.253067e-01 2.532540e-02 0.000000e+00  -2.932519e-02 -8.794767e-01 0.000000e+00  1.697064e-09 -1.500455e+00 0.000000e+00  2.138634e-01 -8.601701e-01 0.000000e+00  5.385616e-01 -5.888529e-01 0.000000e+00  5.576567e-09 -8.750000e-01 0.000000e+00  2.245643e-01 -1.648458e-01 0.000000e+00  -6.875000e-01 7.685589e-09 0.000000e+00  8.568724e-01 -3.474704e-01 0.000000e+00  9.280777e-01 8.894105e-10 0.000000e+00  1.006538e+00 -1.550421e-01 0.000000e+00  1.046447e+00 -2.437553e-09 0.000000e+00  1.889371e+00 -1.063798e-09 0.000000e+00  -4.253068e-01 -2.532543e-02 0.000000e+00  -6.629126e-01 -4.861359e-01 0.000000e+00  2.245643e-01 1.648458e-01 0.000000e+00  1.006538e+00 1.550422e-01 0.000000e+00  -1.614792e-01 3.490563e-01 0.000000e+00  -1.786086e-01 7.399500e-01 0.000000e+00  -2.932519e-02 8.794767e-01 0.000000e+00  8.568724e-01 3.474704e-01 0.000000e+00  1.889371e+00 6.423404e-09 0.000000e+00  5.385617e-01 5.888529e-01 0.000000e+00  9.280777e-01 7.932246e-09 0.000000e+00  -1.406801e-09 8.750000e-01 0.000000e+00  2.138634e-01 8.601701e-01 0.000000e+00  4.894507e-09 1.500455e+00 0.000000e+00  -3.946064e-01 -3.147440e-02 0.000000e+00  -3.894912e-01 -5.761491e-01 0.000000e+00  -2.485879e-01 5.439829e-01 0.000000e+00  -3.190084e-09 1.171520e+00 0.000000e+00  -2.775340e-01 3.516305e-01 0.000000e+00  -2.942021e-01 1.727883e-01 0.000000e+00  -4.431461e-09 4.375000e-01 0.000000e+00  -2.690758e-01 -3.932119e-01 0.000000e+00  -2.797806e-08 -9.375000e-01 0.000000e+00  -3.595917e-01 -4.502191e-02 0.000000e+00  -3.093592e-01 -3.687657e-09 0.000000e+00  -2.372300e-01 -1.965142e-01 0.000000e+00  -3.918679e-09 -2.525908e-01 0.000000e+00  -2.325923e-01 3.343312e-10 0.000000e+00  -4.805756e-01 1.025022e+00 0.000000e+00  -9.843750e-01 9.218750e-01 0.000000e+00  -5.699631e-10 -1.392116e+00 0.000000e+00  -5.239908e-01 6.056285e-01 0.000000e+00  -4.961604e-01 1.714009e-01 0.000000e+00  -4.723483e-01 2.743641e-01 0.000000e+00  -2.603081e-01 8.209626e-01 0.000000e+00  -1.242568e-08 -7.016767e-01 0.000000e+00  -1.821155e-01 6.424334e-01 0.000000e+00  -1.265644e-01 2.382389e-01 0.000000e+00  -1.235069e-01 1.184862e-01 0.000000e+00  -3.109526e-09 -1.252787e-01 0.000000e+00  -2.476598e-01 2.945985e-01 0.000000e+00  -3.266735e-01 1.914171e-01 0.000000e+00  -3.437500e-01 2.460937e-01 0.000000e+00  -1.338175e-01 3.618660e-01 0.000000e+00  -5.902094e-09 -3.854025e-01 0.000000e+00  -1.491710e-01 4.938919e-01 0.000000e+00  -2.212666e-01 -6.438017e-01 0.000000e+00  -1.164863e-01 -9.684422e-01 0.000000e+00  -8.858543e-02 -1.068931e+00 0.000000e+00  -3.353324e-01 -2.507329e-01 0.000000e+00  -3.433541e-01 -1.849653e-01 0.000000e+00  -3.811747e-01 6.076698e-02 0.000000e+00  -3.152852e-01 -3.322745e-01 0.000000e+00  -2.725208e-01 -4.262505e-01 0.000000e+00  -3.992785e-01 -2.961626e-02 0.000000e+00  -3.736656e-01 2.888447e-01 0.000000e+00  -4.192502e-01 3.063106e-01 0.000000e+00  -3.106713e-01 4.907047e-01 0.000000e+00  -2.330507e-01 9.854848e-02 0.000000e+00  -1.228082e-01 2.868816e-09 0.000000e+00  -3.183687e-01 1.307672e-01 0.000000e+00  -3.621732e-01 6.057054e-02 0.000000e+00  -3.157868e-01 6.662483e-02 0.000000e+00  -3.169230e-01 2.315914e-09 0.000000e+00  -3.606564e-01 2.422747e-02 0.000000e+00  -1.840512e-01 -1.517914e-01 0.000000e+00  -4.481765e-09 -2.232767e-01 0.000000e+00  -1.900515e-01 2.937861e-10 0.000000e+00  -1.776591e-01 -3.000528e-01 0.000000e+00  -9.964576e-09 -6.415811e-01 0.000000e+00  -1.705238e-01 -4.447711e-01 0.000000e+00  -3.017292e-01 -8.614877e-02 0.000000e+00  -3.648601e-01 -7.193684e-09 0.000000e+00  -3.584885e-01 -2.713165e-02 0.000000e+00  -1.366729e-01 -8.505336e-01 0.000000e+00  -3.892620e-09 -1.307984e+00 0.000000e+00  -2.658936e-01 -4.459451e-01 0.000000e+00  -3.468111e-01 -1.331123e-01 0.000000e+00  -1.512338e-01 -7.215913e-01 0.000000e+00  -6.294660e-09 -1.011730e+00 0.000000e+00  -1.620400e-01 -5.856140e-01 0.000000e+00  -3.496268e-01 -9.159570e-02 0.000000e+00  -2.864155e-01 -2.609056e-01 0.000000e+00  -3.533844e-01 -5.709660e-02 0.000000e+00  -6.370256e-01 2.374972e-01 0.000000e+00  -9.690249e-01 3.453859e-01 0.000000e+00  -4.361897e-01 1.681388e-02 0.000000e+00  -2.991901e-01 -2.405759e-01 0.000000e+00  -2.747111e-01 -1.330449e-01 0.000000e+00  -3.482243e-02 -2.395983e-01 0.000000e+00  3.314562e-02 -4.253689e-01 0.000000e+00  -5.107850e-02 -1.143107e+00 0.000000e+00  -1.068046e-09 -1.481661e+00 0.000000e+00  -1.156541e-01 -8.227908e-01 0.000000e+00  -1.964706e-01 -5.215211e-01 0.000000e+00  -2.695665e-03 -1.180117e+00 0.000000e+00  -7.644588e-10 -1.459926e+00 0.000000e+00  5.701204e-02 -1.168181e+00 0.000000e+00  2.994919e-01 -7.267624e-01 0.000000e+00  9.141792e-09 -4.920500e-01 0.000000e+00  3.987167e-01 -4.120791e-01 0.000000e+00  2.088938e-01 -9.517504e-01 0.000000e+00  1.015376e-08 -1.157571e+00 0.000000e+00  1.277771e-01 -1.095659e+00 0.000000e+00  3.671623e-01 -7.606667e-01 0.000000e+00  4.791627e-01 -5.860427e-01 0.000000e+00  2.611514e-01 -6.453026e-01 0.000000e+00  -8.129284e-02 -6.009767e-01 0.000000e+00  8.096084e-02 -8.961864e-01 0.000000e+00  7.264941e-02 -6.469514e-01 0.000000e+00  -5.961799e-01 7.992760e-02 0.000000e+00  -1.303728e+00 3.070579e-08 0.000000e+00  -1.225173e-01 -1.022046e-01 0.000000e+00  2.578125e-01 -2.929687e-01 0.000000e+00  -2.058939e-01 -2.556794e-02 0.000000e+00  -2.423974e-01 -4.811706e-09 0.000000e+00  1.910547e-01 -7.077318e-02 0.000000e+00  7.260680e-01 -3.373967e-01 0.000000e+00  5.058123e-01 -1.745368e-09 0.000000e+00  7.223607e-01 -4.621493e-01 0.000000e+00  5.504224e-01 -4.298944e-01 0.000000e+00  9.874898e-01 -2.682888e-01 0.000000e+00  1.272193e+00 -1.177477e-08 0.000000e+00  1.188840e+00 -2.049316e-01 0.000000e+00  1.493091e+00 -4.625030e-02 0.000000e+00  1.972577e+00 -2.440034e-09 0.000000e+00  1.511696e+00 9.873376e-10 0.000000e+00  1.435887e+00 -9.473624e-02 0.000000e+00  1.747725e+00 -3.049624e-09 0.000000e+00  1.336271e+00 -1.472520e-01 0.000000e+00  1.037037e+00 -7.467931e-02 0.000000e+00  6.028092e-01 -3.921479e-10 0.000000e+00  6.037246e-01 -8.401462e-02 0.000000e+00  5.882540e-01 -2.941589e-01 0.000000e+00  9.490303e-01 -2.452632e-01 0.000000e+00  6.022497e-01 -1.796331e-01 0.000000e+00  -9.690250e-01 -3.453859e-01 0.000000e+00  -9.843750e-01 -9.218750e-01 0.000000e+00  -5.961799e-01 -7.992760e-02 0.000000e+00  -2.058939e-01 2.556794e-02 0.000000e+00  -6.370255e-01 -2.374972e-01 0.000000e+00  -4.961604e-01 -1.714009e-01 0.000000e+00  -4.361897e-01 -1.681391e-02 0.000000e+00  1.037037e+00 7.467932e-02 0.000000e+00  1.493091e+00 4.625029e-02 0.000000e+00  6.037246e-01 8.401462e-02 0.000000e+00  1.910547e-01 7.077317e-02 0.000000e+00  6.022497e-01 1.796331e-01 0.000000e+00  5.882540e-01 2.941589e-01 0.000000e+00  2.578125e-01 2.929688e-01 0.000000e+00  -1.156541e-01 8.227908e-01 0.000000e+00  -5.107850e-02 1.143107e+00 0.000000e+00  -8.858542e-02 1.068931e+00 0.000000e+00  -8.129283e-02 6.009768e-01 0.000000e+00  7.264939e-02 6.469515e-01 0.000000e+00  3.314563e-02 4.253689e-01 0.000000e+00  -1.964706e-01 5.215211e-01 0.000000e+00  -2.725208e-01 4.262505e-01 0.000000e+00  -2.991901e-01 2.405759e-01 0.000000e+00  -1.225173e-01 1.022046e-01 0.000000e+00  -3.482242e-02 2.395983e-01 0.000000e+00  -2.747111e-01 1.330449e-01 0.000000e+00  1.435887e+00 9.473624e-02 0.000000e+00  1.972577e+00 3.887882e-09 0.000000e+00  9.490303e-01 2.452632e-01 0.000000e+00  5.504224e-01 4.298944e-01 0.000000e+00  1.336271e+00 1.472520e-01 0.000000e+00  1.747725e+00 8.126607e-09 0.000000e+00  1.188840e+00 2.049316e-01 0.000000e+00  3.987167e-01 4.120791e-01 0.000000e+00  1.136335e-08 4.920500e-01 0.000000e+00  5.058123e-01 -7.044915e-10 0.000000e+00  2.994919e-01 7.267624e-01 0.000000e+00  2.065193e-08 1.157571e+00 0.000000e+00  2.088938e-01 9.517504e-01 0.000000e+00  7.260680e-01 3.373967e-01 0.000000e+00  1.272193e+00 1.777585e-08 0.000000e+00  9.874898e-01 2.682888e-01 0.000000e+00  -2.695660e-03 1.180117e+00 0.000000e+00  1.175979e-09 1.481661e+00 0.000000e+00  8.096085e-02 8.961864e-01 0.000000e+00  2.611514e-01 6.453026e-01 0.000000e+00  5.701204e-02 1.168181e+00 0.000000e+00  3.231620e-09 1.459926e+00 0.000000e+00  1.277771e-01 1.095659e+00 0.000000e+00  4.791627e-01 5.860427e-01 0.000000e+00  3.671623e-01 7.606667e-01 0.000000e+00  7.223607e-01 4.621493e-01 0.000000e+00  -5.239909e-01 -6.056285e-01 0.000000e+00  -4.805756e-01 -1.025022e+00 0.000000e+00  -4.723482e-01 -2.743641e-01 0.000000e+00  -3.992785e-01 2.961625e-02 0.000000e+00  -4.192502e-01 -3.063106e-01 0.000000e+00  -3.736657e-01 -2.888447e-01 0.000000e+00  -3.811748e-01 -6.076700e-02 0.000000e+00  -1.164863e-01 9.684422e-01 0.000000e+00  -3.765448e-09 1.307984e+00 0.000000e+00  -2.212666e-01 6.438016e-01 0.000000e+00  -3.152852e-01 3.322745e-01 0.000000e+00  -1.366729e-01 8.505336e-01 0.000000e+00  -7.153265e-09 1.011730e+00 0.000000e+00  -1.512338e-01 7.215913e-01 0.000000e+00  -1.776591e-01 3.000528e-01 0.000000e+00  -7.395290e-09 2.232767e-01 0.000000e+00  -1.840512e-01 1.517914e-01 0.000000e+00  -1.705238e-01 4.447711e-01 0.000000e+00  -8.879944e-09 6.415811e-01 0.000000e+00  -1.620400e-01 5.856140e-01 0.000000e+00  -2.864155e-01 2.609056e-01 0.000000e+00  -3.496268e-01 9.159572e-02 0.000000e+00  -3.468111e-01 1.331123e-01 0.000000e+00  -3.353324e-01 2.507329e-01 0.000000e+00  -2.658936e-01 4.459451e-01 0.000000e+00  -3.433540e-01 1.849653e-01 0.000000e+00  -2.603082e-01 -8.209626e-01 0.000000e+00  2.525301e-08 -1.392117e+00 0.000000e+00  -3.106713e-01 -4.907047e-01 0.000000e+00  -3.437500e-01 -2.460938e-01 0.000000e+00  -1.821155e-01 -6.424333e-01 0.000000e+00  -8.617998e-09 -7.016768e-01 0.000000e+00  -1.491710e-01 -4.938919e-01 0.000000e+00  -3.017292e-01 8.614877e-02 0.000000e+00  -1.900515e-01 -1.542502e-09 0.000000e+00  -3.533844e-01 5.709659e-02 0.000000e+00  -3.621732e-01 -6.057054e-02 0.000000e+00  -3.584885e-01 2.713165e-02 0.000000e+00  -3.648601e-01 8.308970e-11 0.000000e+00  -3.606564e-01 -2.422747e-02 0.000000e+00  -1.235069e-01 -1.184862e-01 0.000000e+00  -1.228082e-01 -3.742345e-09 0.000000e+00  -3.374973e-10 -1.252787e-01 0.000000e+00  -2.330507e-01 -9.854848e-02 0.000000e+00  -3.169229e-01 -6.841525e-09 0.000000e+00  -3.157868e-01 -6.662483e-02 0.000000e+00  -1.265644e-01 -2.382389e-01 0.000000e+00  -5.827376e-09 -3.854026e-01 0.000000e+00  -1.338175e-01 -3.618660e-01 0.000000e+00  -3.266735e-01 -1.914171e-01 0.000000e+00  -3.183687e-01 -1.307672e-01 0.000000e+00  -2.476598e-01 -2.945985e-01 0.000000e+00  -6.527421e-01 1.527493e+00 0.000000e+00  -1.095024e-07 -1.992187e+00 0.000000e+00  -1.408689e+00 1.386592e+00 0.000000e+00  -3.226958e-01 1.265789e+00 0.000000e+00  -7.644464e-08 -1.114106e+00 0.000000e+00  -1.997419e-01 1.058358e+00 0.000000e+00  -7.136479e-01 1.066635e+00 0.000000e+00  -7.877917e-01 6.729718e-01 0.000000e+00  -6.633665e-01 7.797766e-01 0.000000e+00  -4.915028e-01 2.319220e-01 0.000000e+00  -4.409358e-01 7.800761e-02 0.000000e+00  -4.322115e-01 2.296777e-02 0.000000e+00  -5.025505e-01 4.338077e-01 0.000000e+00  -4.559256e-01 4.481310e-01 0.000000e+00  -4.497070e-01 6.030273e-01 0.000000e+00  -5.450773e-01 3.928299e-01 0.000000e+00  -5.706923e-01 3.236393e-01 0.000000e+00  -6.026608e-01 5.693920e-01 0.000000e+00  -9.524804e-02 6.863363e-01 0.000000e+00  -8.401773e-02 5.994971e-01 0.000000e+00  -1.281945e-08 -6.112393e-01 0.000000e+00  -2.122655e-01 7.269694e-01 0.000000e+00  -2.896570e-01 6.403973e-01 0.000000e+00  -3.411238e-01 7.053804e-01 0.000000e+00  -1.130753e-01 7.859353e-01 0.000000e+00  -1.308290e-08 -8.070808e-01 0.000000e+00  -1.432743e-01 9.056312e-01 0.000000e+00  -4.172114e-01 7.638058e-01 0.000000e+00  -3.406721e-01 9.242669e-01 0.000000e+00  -5.260636e-01 7.993175e-01 0.000000e+00  -6.264058e-02 1.235734e-01 0.000000e+00  -8.074582e-09 -6.253253e-02 0.000000e+00  -6.231608e-02 6.169653e-02 0.000000e+00  -6.327081e-02 1.858885e-01 0.000000e+00  -8.644676e-09 -1.885114e-01 0.000000e+00  -6.430674e-02 2.489805e-01 0.000000e+00  -1.246552e-01 1.780730e-01 0.000000e+00  -1.823236e-01 1.652184e-01 0.000000e+00  -1.848088e-01 2.206210e-01 0.000000e+00  -3.338778e-01 2.197573e-01 0.000000e+00  -3.626621e-01 1.600962e-01 0.000000e+00  -3.554656e-01 1.458061e-01 0.000000e+00  -3.007066e-01 2.862180e-01 0.000000e+00  -3.125012e-01 3.243669e-01 0.000000e+00  -2.565619e-01 3.438536e-01 0.000000e+00  -2.921909e-01 2.469517e-01 0.000000e+00  -2.862164e-01 2.069435e-01 0.000000e+00  -2.414382e-01 2.454997e-01 0.000000e+00  -7.164689e-02 4.483111e-01 0.000000e+00  -7.663379e-02 5.210629e-01 0.000000e+00  -8.191071e-09 -4.557291e-01 0.000000e+00  -1.400918e-01 4.264328e-01 0.000000e+00  -2.141438e-01 4.505124e-01 0.000000e+00  -2.024850e-01 3.911278e-01 0.000000e+00  -6.823215e-02 3.794607e-01 0.000000e+00  -2.918428e-09 -3.180002e-01 0.000000e+00  -6.589091e-02 3.133004e-01 0.000000e+00  -1.943188e-01 3.332650e-01 0.000000e+00  -1.294938e-01 2.993450e-01 0.000000e+00  -1.886513e-01 2.765419e-01 0.000000e+00  -1.036286e-01 -1.021364e+00 0.000000e+00  -4.421719e-02 -1.239508e+00 0.000000e+00  -5.253110e-02 -1.191384e+00 0.000000e+00  -1.534511e-01 -8.552313e-01 0.000000e+00  -1.332977e-01 -9.024407e-01 0.000000e+00  -2.021930e-01 -6.928414e-01 0.000000e+00  -1.702810e-01 -8.043348e-01 0.000000e+00  -1.842216e-01 -7.508095e-01 0.000000e+00  -2.365010e-01 -5.939135e-01 0.000000e+00  -3.674784e-01 -6.011530e-02 0.000000e+00  -3.747523e-01 6.641877e-02 0.000000e+00  -3.656838e-01 -4.327684e-02 0.000000e+00  -3.687853e-01 -8.158834e-02 0.000000e+00  -3.881111e-01 4.954315e-02 0.000000e+00  -3.686797e-01 -1.084477e-01 0.000000e+00  -3.402881e-01 -2.159175e-01 0.000000e+00  -3.032858e-01 -3.535366e-01 0.000000e+00  -2.951849e-01 -3.958040e-01 0.000000e+00  -3.446933e-01 -2.250248e-01 0.000000e+00  -3.922925e-01 -7.345555e-02 0.000000e+00  -3.222492e-01 -2.743722e-01 0.000000e+00  -3.585184e-01 -1.802671e-01 0.000000e+00  -3.990880e-01 5.358378e-03 0.000000e+00  -3.658350e-01 -1.412735e-01 0.000000e+00  -2.974650e-01 -3.782160e-01 0.000000e+00  -2.248601e-01 -5.813051e-01 0.000000e+00  -2.500958e-01 -5.339599e-01 0.000000e+00  -3.274280e-01 -2.895739e-01 0.000000e+00  -2.695635e-01 -4.865818e-01 0.000000e+00  -2.842568e-01 -4.402841e-01 0.000000e+00  -3.720195e-01 1.709990e-01 0.000000e+00  -3.568376e-01 2.695613e-01 0.000000e+00  -3.285139e-01 3.607147e-01 0.000000e+00  -3.836159e-01 1.773199e-01 0.000000e+00  -3.972246e-01 1.774840e-01 0.000000e+00  -4.374093e-01 1.211489e-01 0.000000e+00  -4.463161e-01 2.983161e-01 0.000000e+00  -4.132762e-01 4.420565e-01 0.000000e+00  -4.264128e-01 1.513881e-01 0.000000e+00  -4.120541e-01 1.695491e-01 0.000000e+00  -1.624194e-01 5.653842e-01 0.000000e+00  -2.547572e-01 5.752048e-01 0.000000e+00  -3.440111e-01 5.364512e-01 0.000000e+00  -2.307956e-01 5.117964e-01 0.000000e+00  -2.865068e-01 4.424043e-01 0.000000e+00  -3.778277e-01 4.223047e-01 0.000000e+00  -3.498818e-01 3.940530e-01 0.000000e+00  -3.945538e-01 3.020012e-01 0.000000e+00  -1.229356e-01 5.920052e-02 0.000000e+00  -6.222552e-02 -1.620634e-09 0.000000e+00  -1.808639e-01 1.101011e-01 0.000000e+00  -2.345521e-01 1.475609e-01 0.000000e+00  -1.801899e-01 5.507946e-02 0.000000e+00  -1.801252e-01 3.394967e-09 0.000000e+00  -2.324632e-01 4.938837e-02 0.000000e+00  -3.502131e-01 1.290004e-01 0.000000e+00  -3.651419e-01 6.545082e-02 0.000000e+00  -3.216431e-01 1.616336e-01 0.000000e+00  -2.822159e-01 1.663921e-01 0.000000e+00  -3.466429e-01 1.103018e-01 0.000000e+00  -3.603621e-01 5.361067e-02 0.000000e+00  -3.444967e-01 9.015045e-02 0.000000e+00  -3.444158e-01 2.364896e-02 0.000000e+00  -3.622473e-01 1.246554e-02 0.000000e+00  -3.459337e-01 -4.521807e-10 0.000000e+00  -3.435703e-01 4.663761e-02 0.000000e+00  -3.597322e-01 3.514296e-02 0.000000e+00  -3.435401e-01 6.885623e-02 0.000000e+00  -3.159836e-01 3.358908e-02 0.000000e+00  -2.786794e-01 1.821839e-09 0.000000e+00  -2.782128e-01 4.219783e-02 0.000000e+00  -2.797562e-01 1.253953e-01 0.000000e+00  -3.165084e-01 9.904863e-02 0.000000e+00  -2.785064e-01 8.399396e-02 0.000000e+00  -1.024841e-01 -9.416458e-02 0.000000e+00  -1.042718e-01 -8.776145e-09 0.000000e+00  -7.379237e-09 -1.127190e-01 0.000000e+00  -1.870855e-01 -7.634260e-02 0.000000e+00  -2.581339e-01 -9.548737e-09 0.000000e+00  -2.545135e-01 -5.929422e-02 0.000000e+00  -1.006369e-01 -1.868443e-01 0.000000e+00  -1.084893e-08 -3.315769e-01 0.000000e+00  -9.871252e-02 -2.779989e-01 0.000000e+00  -9.221602e-02 -5.416333e-01 0.000000e+00  -8.968504e-02 -6.258692e-01 0.000000e+00  -4.623183e-09 -7.393233e-01 0.000000e+00  -1.742150e-01 -3.728650e-01 0.000000e+00  -2.393801e-01 -2.931762e-01 0.000000e+00  -2.433459e-01 -2.350727e-01 0.000000e+00  -9.453506e-02 -4.554860e-01 0.000000e+00  -3.338341e-09 -5.408966e-01 0.000000e+00  -9.668828e-02 -3.675722e-01 0.000000e+00  -3.615289e-01 -1.329302e-02 0.000000e+00  -3.683108e-01 1.245366e-04 0.000000e+00  -3.710944e-01 -1.926083e-09 0.000000e+00  -3.373524e-01 -5.575386e-02 0.000000e+00  -3.339577e-01 -8.425880e-02 0.000000e+00  -2.979677e-01 -1.293503e-01 0.000000e+00  -3.409061e-01 -2.771253e-02 0.000000e+00  -3.446186e-01 -5.178460e-10 0.000000e+00  -3.055201e-01 -4.306639e-02 0.000000e+00  -2.471540e-01 -1.767674e-01 0.000000e+00  -2.508629e-01 -1.181961e-01 0.000000e+00  -1.809214e-01 -2.263596e-01 0.000000e+00  -5.976374e-02 -1.136291e+00 0.000000e+00  -1.564206e-09 -1.365376e+00 0.000000e+00  -1.274124e-01 -9.112058e-01 0.000000e+00  -1.957247e-01 -6.955044e-01 0.000000e+00  -6.602796e-02 -1.075257e+00 0.000000e+00  -6.744019e-09 -1.243059e+00 0.000000e+00  -7.144257e-02 -1.009182e+00 0.000000e+00  -3.453368e-01 -1.575147e-01 0.000000e+00  -3.639908e-01 -3.029704e-02 0.000000e+00  -3.093698e-01 -3.136038e-01 0.000000e+00  -2.581881e-01 -4.945538e-01 0.000000e+00  -3.140933e-01 -2.759328e-01 0.000000e+00  -3.179601e-01 -2.403308e-01 0.000000e+00  -2.722067e-01 -3.982990e-01 0.000000e+00  -8.374860e-02 -7.877729e-01 0.000000e+00  -8.688542e-02 -7.080004e-01 0.000000e+00  -6.396469e-09 -9.247821e-01 0.000000e+00  -1.570054e-01 -6.543114e-01 0.000000e+00  -2.255673e-01 -4.667812e-01 0.000000e+00  -2.198235e-01 -5.244606e-01 0.000000e+00  -8.019348e-02 -8.648574e-01 0.0