<?xml version="1.0"?>
<VTKFile type="UnstructuredGrid"  version="0.1"  >
<UnstructuredGrid>
<Piece  NumberOfPoints="1105" NumberOfCells="2048">
<Points>
<DataArray  type="Float32"  NumberOfComponents="3"  format="ascii">0 0 0  1 0 0  1 1 0  0 1 0  -1 1 0  -1 0 0  -1 -1 0  0 -1 0  1 -1 0  1 0 0  0.5 0.5 0  0 0.5 0  0.5 0 0  0.5 1 0  1 0.5 0  -0.5 1 0  -0.5 0.5 0  -1 0.5 0  -0.5 0 0  -0.5 -0.5 0  0 -0.5 0  -0.5 -1 0  -1 -0.5 0  0.5 -1 0  0.5 -0.5 0  1 -0.5 0  0.5 0 0  0.25 0.25 0  0.25 0 0  0 0.25 0  0.5 0.25 0  0.75 0 0  0.75 0.25 0  0.25 0.5 0  0 0.75 0  0.25 0.75 0  0.75 0.5 0  1 0.25 0  0.75 0.75 0  1 0.75 0  0.75 1 0  0.5 0.75 0  0.25 1 0  -0.25 0.5 0  -0.25 0.25 0  -0.25 0.75 0  -0.25 1 0  -0.5 0.75 0  -0.75 0.75 0  -0.75 1 0  -0.5 0.25 0  -0.25 0 0  -0.75 0.5 0  -1 0.75 0  -0.75 0.25 0  -0.75 0 0  -1 0.25 0  -0.25 -0.25 0  0 -0.25 0  -0.5 -0.25 0  -0.75 -0.25 0  -0.25 -0.5 0  0 -0.75 0  -0.25 -0.75 0  -0.75 -0.5 0  -1 -0.25 0  -0.75 -0.75 0  -1 -0.75 0  -0.75 -1 0  -0.5 -0.75 0  -0.25 -1 0  0.25 -0.5 0  0.25 -0.25 0  0.25 -0.75 0  0.25 -1 0  0.5 -0.75 0  0.75 -0.75 0  0.75 -1 0  0.5 -0.25 0  0.25 0 0  0.75 -0.5 0  1 -0.75 0  0.75 -0.25 0  0.75 0 0  1 -0.25 0  0.125 0.125 0  0 0.125 0  0.125 0 0  0.125 0.25 0  0 0.375 0  0.125 0.375 0  0.25 0.125 0  0.375 0 0  0.375 0.125 0  0.75 0.125 0  0.875 0.125 0  0.875 0 0  0.625 0.25 0  0.625 0.375 0  0.5 0.375 0  0.625 0.125 0  0.625 0 0  0.5 0.125 0  0.125 0.75 0  0.125 0.875 0  0 0.875 0  0.25 0.625 0  0.375 0.625 0  0.375 0.5 0  0.125 0.625 0  0 0.625 0  0.125 0.5 0  0.375 0.375 0  0.25 0.375 0  0.375 0.25 0  0.875 0.25 0  1 0.125 0  0.75 0.375 0  0.625 0.5 0  0.875 0.375 0  1 0.375 0  0.875 0.5 0  0.875 0.875 0  0.875 1 0  1 0.875 0  0.75 0.875 0  0.625 1 0  0.625 0.875 0  0.875 0.75 0  1 0.625 0  0.875 0.625 0  0.25 0.875 0  0.125 1 0  0.375 0.75 0  0.5 0.625 0  0.375 0.875 0  0.375 1 0  0.5 0.875 0  0.625 0.625 0  0.625 0.75 0  0.75 0.625 0  -0.125 0.25 0  -0.125 0.125 0  -0.125 0.375 0  -0.125 0.5 0  -0.25 0.375 0  -0.375 0.375 0  -0.375 0.5 0  -0.125 0.875 0  -0.125 1 0  -0.125 0.75 0  -0.125 0.625 0  -0.25 0.875 0  -0.375 1 0  -0.375 0.875 0  -0.75 0.875 0  -0.875 1 0  -0.875 0.875 0  -0.625 0.875 0  -0.625 1 0  -0.5 0.875 0  -0.625 0.75 0  -0.625 0.625 0  -0.5 0.625 0  -0.25 0.625 0  -0.375 0.75 0  -0.375 0.625 0  -0.25 0.125 0  -0.125 0 0  -0.375 0.25 0  -0.5 0.375 0  -0.375 0.125 0  -0.375 0 0  -0.5 0.125 0  -0.875 0.75 0  -1 0.875 0  -0.75 0.625 0  -0.625 0.5 0  -0.875 0.625 0  -1 0.625 0  -0.875 0.5 0  -0.875 0.125 0  -1 0.125 0  -0.875 0 0  -0.875 0.25 0  -1 0.375 0  -0.875 0.375 0  -0.75 0.125 0  -0.625 0 0  -0.625 0.125 0  -0.625 0.375 0  -0.75 0.375 0  -0.625 0.25 0  -0.125 -0.125 0  0 -0.125 0  -0.25 -0.125 0  -0.375 -0.125 0  -0.125 -0.25 0  0 -0.375 0  -0.125 -0.375 0  -0.75 -0.125 0  -0.875 -0.125 0  -0.625 -0.125 0  -0.5 -0.125 0  -0.625 -0.25 0  -0.625 -0.375 0  -0.5 -0.375 0  -0.125 -0.75 0  -0.125 -0.875 0  0 -0.875 0  -0.25 -0.625 0  -0.375 -0.625 0  -0.375 -0.5 0  -0.125 -0.625 0  0 -0.625 0  -0.125 -0.5 0  -0.375 -0.25 0  -0.375 -0.375 0  -0.25 -0.375 0  -0.875 -0.25 0  -1 -0.125 0  -0.75 -0.375 0  -0.625 -0.5 0  -0.875 -0.375 0  -1 -0.375 0  -0.875 -0.5 0  -0.875 -0.875 0  -0.875 -1 0  -1 -0.875 0  -0.75 -0.875 0  -0.625 -1 0  -0.625 -0.875 0  -0.875 -0.75 0  -1 -0.625 0  -0.875 -0.625 0  -0.25 -0.875 0  -0.125 -1 0  -0.375 -0.75 0  -0.5 -0.625 0  -0.375 -0.875 0  -0.375 -1 0  -0.5 -0.875 0  -0.625 -0.625 0  -0.625 -0.75 0  -0.75 -0.625 0  0.125 -0.25 0  0.125 -0.125 0  0.125 -0.375 0  0.125 -0.5 0  0.25 -0.375 0  0.375 -0.375 0  0.375 -0.5 0  0.125 -0.875 0  0.125 -1 0  0.125 -0.75 0  0.125 -0.625 0  0.25 -0.875 0  0.375 -1 0  0.375 -0.875 0  0.75 -0.875 0  0.875 -1 0  0.875 -0.875 0  0.625 -0.875 0  0.625 -1 0  0.5 -0.875 0  0.625 -0.75 0  0.625 -0.625 0  0.5 -0.625 0  0.25 -0.625 0  0.375 -0.75 0  0.375 -0.625 0  0.25 -0.125 0  0.125 0 0  0.375 -0.25 0  0.5 -0.375 0  0.375 -0.125 0  0.375 0 0  0.5 -0.125 0  0.875 -0.75 0  1 -0.875 0  0.75 -0.625 0  0.625 -0.5 0  0.875 -0.625 0  1 -0.625 0  0.875 -0.5 0  0.875 -0.125 0  1 -0.125 0  0.875 0 0  0.875 -0.25 0  1 -0.375 0  0.875 -0.375 0  0.75 -0.125 0  0.625 0 0  0.625 -0.125 0  0.625 -0.375 0  0.75 -0.375 0  0.625 -0.25 0  0.0625 0.0625 0  0.0625 0 0  0 0.0625 0  0.125 0.0625 0  0.1875 0 0  0.1875 0.0625 0  0.0625 0.125 0  0 0.1875 0  0.0625 0.1875 0  0.0625 0.375 0  0.0625 0.4375 0  0 0.4375 0  0.125 0.3125 0  0.1875 0.3125 0  0.1875 0.25 0  0.0625 0.3125 0  0 0.3125 0  0.0625 0.25 0  0.375 0.0625 0  0.4375 0.0625 0  0.4375 0 0  0.3125 0.125 0  0.3125 0.1875 0  0.25 0.1875 0  0.3125 0.0625 0  0.3125 0 0  0.25 0.0625 0  0.1875 0.1875 0  0.1875 0.125 0  0.125 0.1875 0  0.875 0.0625 0  0.9375 0 0  0.9375 0.0625 0  0.8125 0.0625 0  0.8125 0 0  0.75 0.0625 0  0.8125 0.125 0  0.8125 0.1875 0  0.75 0.1875 0  0.5625 0.375 0  0.5 0.4375 0  0.5625 0.4375 0  0.5625 0.3125 0  0.5 0.3125 0  0.5625 0.25 0  0.625 0.3125 0  0.6875 0.3125 0  0.6875 0.25 0  0.5625 0.0625 0  0.5 0.0625 0  0.5625 0 0  0.5625 0.125 0  0.5 0.1875 0  0.5625 0.1875 0  0.625 0.0625 0  0.6875 0 0  0.6875 0.0625 0  0.625 0.1875 0  0.6875 0.125 0  0.6875 0.1875 0  0.0625 0.875 0  0 0.9375 0  0.0625 0.9375 0  0.0625 0.8125 0  0 0.8125 0  0.0625 0.75 0  0.125 0.8125 0  0.1875 0.8125 0  0.1875 0.75 0  0.375 0.5625 0  0.4375 0.5 0  0.4375 0.5625 0  0.3125 0.5625 0  0.3125 0.5 0  0.25 0.5625 0  0.3125 0.625 0  0.3125 0.6875 0  0.25 0.6875 0  0.0625 0.5625 0  0.0625 0.5 0  0 0.5625 0  0.125 0.5625 0  0.1875 0.5 0  0.1875 0.5625 0  0.0625 0.625 0  0 0.6875 0  0.0625 0.6875 0  0.1875 0.625 0  0.125 0.6875 0  0.1875 0.6875 0  0.4375 0.4375 0  0.4375 0.375 0  0.4375 0.3125 0  0.375 0.4375 0  0.3125 0.4375 0  0.125 0.4375 0  0.1875 0.375 0  0.25 0.3125 0  0.1875 0.4375 0  0.25 0.4375 0  0.4375 0.125 0  0.375 0.1875 0  0.3125 0.25 0  0.4375 0.1875 0  0.4375 0.25 0  0.3125 0.3125 0  0.375 0.3125 0  0.3125 0.375 0  0.9375 0.125 0  1 0.0625 0  0.875 0.1875 0  0.8125 0.25 0  0.9375 0.1875 0  1 0.1875 0  0.9375 0.25 0  0.625 0.4375 0  0.5625 0.5 0  0.6875 0.375 0  0.75 0.3125 0  0.6875 0.4375 0  0.6875 0.5 0  0.75 0.4375 0  0.9375 0.4375 0  0.9375 0.5 0  1 0.4375 0  0.875 0.4375 0  0.8125 0.5 0  0.8125 0.4375 0  0.9375 0.375 0  1 0.3125 0  0.9375 0.3125 0  0.8125 0.3125 0  0.8125 0.375 0  0.875 0.3125 0  0.9375 0.9375 0  1 0.9375 0  0.9375 1 0  0.9375 0.875 0  1 0.8125 0  0.9375 0.8125 0  0.875 0.9375 0  0.8125 1 0  0.8125 0.9375 0  0.625 0.9375 0  0.5625 0.9375 0  0.5625 1 0  0.6875 0.875 0  0.6875 0.8125 0  0.75 0.8125 0  0.6875 0.9375 0  0.6875 1 0  0.75 0.9375 0  0.9375 0.625 0  0.9375 0.5625 0  1 0.5625 0  0.875 0.6875 0  0.8125 0.6875 0  0.8125 0.75 0  0.9375 0.6875 0  1 0.6875 0  0.9375 0.75 0  0.8125 0.8125 0  0.875 0.8125 0  0.8125 0.875 0  0.125 0.9375 0  0.0625 1 0  0.1875 0.875 0  0.25 0.8125 0  0.1875 0.9375 0  0.1875 1 0  0.25 0.9375 0  0.4375 0.625 0  0.5 0.5625 0  0.375 0.6875 0  0.3125 0.75 0  0.4375 0.6875 0  0.5 0.6875 0  0.4375 0.75 0  0.4375 0.9375 0  0.5 0.9375 0  0.4375 1 0  0.4375 0.875 0  0.5 0.8125 0  0.4375 0.8125 0  0.375 0.9375 0  0.3125 1 0  0.3125 0.9375 0  0.3125 0.8125 0  0.375 0.8125 0  0.3125 0.875 0  0.5625 0.5625 0  0.625 0.5625 0  0.6875 0.5625 0  0.5625 0.625 0  0.5625 0.6875 0  0.5625 0.875 0  0.625 0.8125 0  0.6875 0.75 0  0.5625 0.8125 0  0.5625 0.75 0  0.875 0.5625 0  0.8125 0.5625 0  0.75 0.5625 0  0.8125 0.625 0  0.75 0.6875 0  0.6875 0.625 0  0.6875 0.6875 0  0.625 0.6875 0  -0.0625 0.125 0  -0.0625 0.0625 0  -0.0625 0.1875 0  -0.0625 0.25 0  -0.125 0.1875 0  -0.1875 0.1875 0  -0.1875 0.25 0  -0.0625 0.4375 0  -0.0625 0.5 0  -0.0625 0.375 0  -0.0625 0.3125 0  -0.125 0.4375 0  -0.1875 0.5 0  -0.1875 0.4375 0  -0.375 0.4375 0  -0.4375 0.5 0  -0.4375 0.4375 0  -0.3125 0.4375 0  -0.3125 0.5 0  -0.25 0.4375 0  -0.3125 0.375 0  -0.3125 0.3125 0  -0.25 0.3125 0  -0.125 0.3125 0  -0.1875 0.375 0  -0.1875 0.3125 0  -0.0625 0.9375 0  -0.0625 1 0  -0.0625 0.875 0  -0.0625 0.8125 0  -0.125 0.9375 0  -0.1875 1 0  -0.1875 0.9375 0  -0.0625 0.625 0  -0.0625 0.5625 0  -0.0625 0.6875 0  -0.0625 0.75 0  -0.125 0.6875 0  -0.1875 0.6875 0  -0.1875 0.75 0  -0.375 0.9375 0  -0.4375 0.9375 0  -0.4375 1 0  -0.3125 0.875 0  -0.3125 0.8125 0  -0.25 0.8125 0  -0.3125 0.9375 0  -0.3125 1 0  -0.25 0.9375 0  -0.125 0.8125 0  -0.1875 0.8125 0  -0.1875 0.875 0  -0.875 0.9375 0  -0.9375 0.9375 0  -0.9375 1 0  -0.8125 0.875 0  -0.8125 0.8125 0  -0.75 0.8125 0  -0.8125 0.9375 0  -0.8125 1 0  -0.75 0.9375 0  -0.5625 0.9375 0  -0.5 0.9375 0  -0.5625 1 0  -0.5625 0.875 0  -0.5 0.8125 0  -0.5625 0.8125 0  -0.625 0.9375 0  -0.6875 1 0  -0.6875 0.9375 0  -0.5625 0.625 0  -0.5 0.5625 0  -0.5625 0.5625 0  -0.5625 0.6875 0  -0.5 0.6875 0  -0.5625 0.75 0  -0.625 0.6875 0  -0.6875 0.6875 0  -0.6875 0.75 0  -0.625 0.8125 0  -0.6875 0.8125 0  -0.6875 0.875 0  -0.125 0.5625 0  -0.1875 0.5625 0  -0.25 0.5625 0  -0.1875 0.625 0  -0.25 0.6875 0  -0.4375 0.875 0  -0.375 0.8125 0  -0.3125 0.75 0  -0.4375 0.8125 0  -0.4375 0.75 0  -0.4375 0.5625 0  -0.375 0.5625 0  -0.3125 0.5625 0  -0.4375 0.625 0  -0.4375 0.6875 0  -0.3125 0.625 0  -0.3125 0.6875 0  -0.375 0.6875 0  -0.125 0.0625 0  -0.0625 0 0  -0.1875 0.125 0  -0.25 0.1875 0  -0.1875 0.0625 0  -0.1875 0 0  -0.25 0.0625 0  -0.4375 0.375 0  -0.5 0.4375 0  -0.375 0.3125 0  -0.3125 0.25 0  -0.4375 0.3125 0  -0.5 0.3125 0  -0.4375 0.25 0  -0.4375 0.0625 0  -0.5 0.0625 0  -0.4375 0 0  -0.4375 0.125 0  -0.5 0.1875 0  -0.4375 0.1875 0  -0.375 0.0625 0  -0.3125 0 0  -0.3125 0.0625 0  -0.3125 0.1875 0  -0.375 0.1875 0  -0.3125 0.125 0  -0.9375 0.875 0  -1 0.9375 0  -0.875 0.8125 0  -0.8125 0.75 0  -0.9375 0.8125 0  -1 0.8125 0  -0.9375 0.75 0  -0.625 0.5625 0  -0.5625 0.5 0  -0.6875 0.625 0  -0.75 0.6875 0  -0.6875 0.5625 0  -0.6875 0.5 0  -0.75 0.5625 0  -0.9375 0.5625 0  -0.9375 0.5 0  -1 0.5625 0  -0.875 0.5625 0  -0.8125 0.5 0  -0.8125 0.5625 0  -0.9375 0.625 0  -1 0.6875 0  -0.9375 0.6875 0  -0.8125 0.6875 0  -0.8125 0.625 0  -0.875 0.6875 0  -0.9375 0.0625 0  -0.9375 0 0  -1 0.0625 0  -0.875 0.0625 0  
[...]
<PointData  Vectors="u"> 
<DataArray  type="Float32"  Name="u"  NumberOfComponents="3" format="ascii">-9.306716e+00 -1.785315e+00 0.000000e+00  0.000000e+00 0.000000e+00 0.000000e+00  0.000000e+00 0.000000e+00 0.000000e+00  0.000000e+00 -5.886006e-01 0.000000e+00  0.000000e+00 0.000000e+00 0.000000e+00  8.468766e-01 0.000000e+00 0.000000e+00  0.000000e+00 0.000000e+00 0.000000e+00  0.000000e+00 6.005331e-01 0.000000e+00  0.000000e+00 0.000000e+00 0.000000e+00  0.000000e+00 0.000000e+00 0.000000e+00  -6.869563e-01 9.360329e-01 0.000000e+00  -1.264507e+00 8.995144e-01 0.000000e+00  0.000000e+00 1.382395e+00 0.000000e+00  0.000000e+00 -1.723704e-01 0.000000e+00  -5.039345e-01 0.000000e+00 0.000000e+00  0.000000e+00 -8.787759e-01 0.000000e+00  -6.257133e-01 -4.349049e-02 0.000000e+00  7.410993e-01 0.000000e+00 0.000000e+00  -1.257064e+00 1.329679e-03 0.000000e+00  -6.257579e-01 4.624231e-02 0.000000e+00  -1.265074e+00 -8.923649e-01 0.000000e+00  0.000000e+00 8.932672e-01 0.000000e+00  7.574943e-01 0.000000e+00 0.000000e+00  0.000000e+00 1.646613e-01 0.000000e+00  -6.883120e-01 -9.312843e-01 0.000000e+00  -5.057768e-01 0.000000e+00 0.000000e+00  0.000000e+00 -1.754487e+00 0.000000e+00  -1.114141e+00 2.207496e+00 0.000000e+00  0.000000e+00 2.541365e+00 0.000000e+00  -2.337788e+00 1.886154e+00 0.000000e+00  -5.526514e-01 1.500133e+00 0.000000e+00  0.000000e+00 6.609538e-01 0.000000e+00  -3.759849e-01 7.464554e-01 0.000000e+00  -9.806056e-01 1.144141e+00 0.000000e+00  -5.963442e-01 1.279470e-01 0.000000e+00  -5.532768e-01 3.471254e-01 0.000000e+00  -5.394091e-01 5.071151e-01 0.000000e+00  -3.379583e-01 0.000000e+00 0.000000e+00  -4.120870e-01 2.207857e-01 0.000000e+00  -4.009176e-01 0.000000e+00 0.000000e+00  0.000000e+00 -7.765225e-02 0.000000e+00  -4.672670e-01 3.644624e-01 0.000000e+00  0.000000e+00 -3.438652e-01 0.000000e+00  -1.133214e+00 3.515910e-01 0.000000e+00  -1.981311e+00 6.027094e-01 0.000000e+00  -4.967594e-01 -1.898394e-01 0.000000e+00  0.000000e+00 -8.164863e-01 0.000000e+00  -2.437830e-01 -4.041258e-01 0.000000e+00  1.058862e-01 -3.663533e-01 0.000000e+00  0.000000e+00 -6.381217e-01 0.000000e+00  -1.047167e+00 1.058545e-01 0.000000e+00  -2.631809e+00 7.513412e-03 0.000000e+00  3.417217e-02 -1.584984e-01 0.000000e+00  4.954782e-01 0.000000e+00 0.000000e+00  -1.018316e-01 -4.068252e-02 0.000000e+00  -1.699141e-01 1.282738e-04 0.000000e+00  8.277951e-01 0.000000e+00 0.000000e+00  -1.979531e+00 -5.987256e-01 0.000000e+00  -2.322839e+00 -1.867409e+00 0.000000e+00  -1.046840e+00 -1.034450e-01 0.000000e+00  -1.017482e-01 4.094660e-02 0.000000e+00  -1.133142e+00 -3.462438e-01 0.000000e+00  -5.974681e-01 -1.219362e-01 0.000000e+00  -4.976626e-01 1.948256e-01 0.000000e+00  3.403623e-02 1.588308e-01 0.000000e+00  8.369685e-01 0.000000e+00 0.000000e+00  1.050461e-01 3.666622e-01 0.000000e+00  5.160689e-01 0.000000e+00 0.000000e+00  0.000000e+00 6.493137e-01 0.000000e+00  -2.446868e-01 4.070650e-01 0.000000e+00  0.000000e+00 8.319175e-01 0.000000e+00  -9.824112e-01 -1.137686e+00 0.000000e+00  -1.116664e+00 -2.201388e+00 0.000000e+00  -5.546593e-01 -3.414387e-01 0.000000e+00  0.000000e+00 3.470773e-01 0.000000e+00  -4.686444e-01 -3.602218e-01 0.000000e+00  -4.136831e-01 -2.185141e-01 0.000000e+00  0.000000e+00 6.038089e-02 0.000000e+00  -5.526942e-01 -1.494470e+00 0.000000e+00  0.000000e+00 -3.152640e+00 0.000000e+00  -5.407233e-01 -5.041093e-01 0.000000e+00  -4.087876e-01 0.000000e+00 0.000000e+00  -3.769088e-01 -7.420110e-01 0.000000e+00  0.000000e+00 -8.215733e-01 0.000000e+00  -3.345934e-01 0.000000e+00 0.000000e+00  -1.730973e+00 3.546271e+00 0.000000e+00  -3.978415e+00 2.696081e+00 0.000000e+00  0.000000e+00 3.982228e+00 0.000000e+00  -1.709496e+00 2.331805e+00 0.000000e+00  -1.693129e+00 1.340848e+00 0.000000e+00  -1.435778e+00 1.607705e+00 0.000000e+00  -8.078875e-01 2.844230e+00 0.000000e+00  0.000000e+00 1.848576e+00 0.000000e+00  -4.680189e-01 2.216627e+00 0.000000e+00  -2.040715e-01 8.174070e-01 0.000000e+00  -1.842256e-01 4.075155e-01 0.000000e+00  0.000000e+00 3.379360e-01 0.000000e+00  -4.390941e-01 1.121618e+00 0.000000e+00  -5.595234e-01 9.427060e-01 0.000000e+00  -6.729392e-01 1.227947e+00 0.000000e+00  -2.434439e-01 1.242088e+00 0.000000e+00  0.000000e+00 1.002466e+00 0.000000e+00  -3.182976e-01 1.698483e+00 0.000000e+00  -5.873025e-01 2.604758e-01 0.000000e+00  -2.984381e-01 -1.081989e-01 0.000000e+00  -2.948252e-01 -2.353291e-01 0.000000e+00  -7.862940e-01 7.259658e-01 0.000000e+00  -6.939972e-01 7.193771e-01 0.000000e+00  -8.164729e-01 1.082044e+00 0.000000e+00  -8.696449e-01 6.526188e-01 0.000000e+00  -9.133963e-01 5.028764e-01 0.000000e+00  -1.150620e+00 1.086926e+00 0.000000e+00  -8.516298e-01 1.471809e+00 0.000000e+00  -1.112753e+00 1.626998e+00 0.000000e+00  -7.544615e-01 1.875743e+00 0.000000e+00  -3.443465e-01 3.733470e-01 0.000000e+00  -1.808686e-01 0.000000e+00 0.000000e+00  -4.922553e-01 6.374170e-01 0.000000e+00  -5.962781e-01 7.374016e-01 0.000000e+00  -4.579680e-01 3.216082e-01 0.000000e+00  -4.503163e-01 0.000000e+00 0.000000e+00  -5.102364e-01 2.584451e-01 0.000000e+00  -2.372707e-01 3.993732e-02 0.000000e+00  0.000000e+00 -4.575373e-02 0.000000e+00  -2.354966e-01 0.000000e+00 0.000000e+00  -2.402413e-01 7.512892e-02 0.000000e+00  0.000000e+00 -1.176997e-01 0.000000e+00  -2.480777e-01 9.593934e-02 0.000000e+00  -4.020573e-01 1.150981e-01 0.000000e+00  -4.893210e-01 0.000000e+00 0.000000e+00  -4.928312e-01 1.885114e-01 0.000000e+00  -2.899609e-01 -6.696807e-03 0.000000e+00  0.000000e+00 -4.605761e-01 0.000000e+00  -5.092990e-01 3.806888e-01 0.000000e+00  -6.131403e-01 6.457713e-01 0.000000e+00  -2.755214e-01 6.089537e-02 0.000000e+00  0.000000e+00 -2.469827e-01 0.000000e+00  -2.604058e-01 9.364629e-02 0.000000e+00  -5.522521e-01 5.226925e-01 0.000000e+00  -4.339680e-01 3.075190e-01 0.000000e+00  -5.126418e-01 3.660085e-01 0.000000e+00  -2.340733e+00 1.133159e+00 0.000000e+00  -3.208537e+00 9.791752e-01 0.000000e+00  -1.719077e+00 9.264621e-01 0.000000e+00  -1.261644e+00 6.289419e-01 0.000000e+00  -1.528552e+00 5.411746e-01 0.000000e+00  -1.214577e+00 2.544829e-01 0.000000e+00  -9.095971e-01 1.204107e-01 0.000000e+00  -2.740992e-01 -3.723097e-01 0.000000e+00  0.000000e+00 -7.134438e-01 0.000000e+00  -5.678076e-01 -3.112389e-02 0.000000e+00  -8.906359e-01 3.042809e-01 0.000000e+00  -2.340386e-01 -4.983868e-01 0.000000e+00  0.000000e+00 -8.778242e-01 0.000000e+00  -1.754573e-01 -5.917650e-01 0.000000e+00  8.153616e-02 -4.975144e-01 0.000000e+00  0.000000e+00 -3.729286e-01 0.000000e+00  1.842102e-01 -2.991803e-01 0.000000e+00  -1.443413e-02 -6.055363e-01 0.000000e+00  0.000000e+00 -8.032636e-01 0.000000e+00  -1.011291e-01 -6.328185e-01 0.000000e+00  -7.746817e-02 -4.226180e-01 0.000000e+00  -1.785701e-01 -2.640380e-01 0.000000e+00  -4.213243e-01 -2.042672e-01 0.000000e+00  -7.933306e-01 9.803554e-02 0.000000e+00  -3.862606e-01 -3.213853e-01 0.000000e+00  -6.313264e-01 -7.934698e-02 0.000000e+00  -2.424758e+00 4.302615e-01 0.000000e+00  -3.763050e+00 7.103690e-02 0.000000e+00  -1.522780e+00 2.892059e-01 0.000000e+00  -8.427724e-01 6.446631e-02 0.000000e+00  -1.774407e+00 1.967111e-01 0.000000e+00  -1.875745e+00 2.322393e-03 0.000000e+00  -1.199628e+00 7.746507e-02 0.000000e+00  3.011883e-01 -2.280169e-01 0.000000e+00  2.811227e-01 0.000000e+00 0.000000e+00  8.586856e-02 -2.522951e-01 0.000000e+00  -3.062547e-01 -1.359930e-01 0.000000e+00  3.646659e-01 -1.656378e-01 0.000000e+00  6.445980e-01 0.000000e+00 0.000000e+00  3.873243e-01 -1.131733e-01 0.000000e+00  3.498454e-01 -1.781604e-02 0.000000e+00  8.415854e-01 0.000000e+00 0.000000e+00  3.432709e-01 -4.011407e-04 0.000000e+00  3.662435e-01 -4.025361e-02 0.000000e+00  7.979526e-01 0.000000e+00 0.000000e+00  3.830826e-01 -7.143265e-02 0.000000e+00  -1.516087e-01 -1.419537e-02 0.000000e+00  -6.987828e-01 6.982850e-04 0.000000e+00  -6.649691e-01 1.441751e-02 0.000000e+00  -4.447491e-01 -4.520250e-02 0.000000e+00  -3.412385e-02 -8.770481e-02 0.000000e+00  -5.727656e-01 3.956497e-03 0.000000e+00  -3.193183e+00 -9.800879e-01 0.000000e+00  -3.707658e+00 -2.510832e+00 0.000000e+00  -2.424953e+00 -4.270915e-01 0.000000e+00  -1.774173e+00 -1.932062e-01 0.000000e+00  -2.333686e+00 -1.122684e+00 0.000000e+00  -1.692428e+00 -1.332221e+00 0.000000e+00  -1.718018e+00 -9.186407e-01 0.000000e+00  -1.515486e-01 1.444982e-02 0.000000e+00  3.499603e-01 1.701661e-02 0.000000e+00  -6.648673e-01 -1.304911e-02 0.000000e+00  -1.199452e+00 -7.497422e-02 0.000000e+00  -5.726076e-01 -2.593888e-03 0.000000e+00  -4.446571e-01 4.663880e-02 0.000000e+00  -8.425195e-01 -6.188519e-02 0.000000e+00  -5.687984e-01 3.677957e-02 0.000000e+00  -2.752910e-01 3.780132e-01 0.000000e+00  -2.960528e-01 2.412906e-01 0.000000e+00  -7.938249e-01 -9.291368e-02 0.000000e+00  -6.317620e-01 8.338774e-02 0.000000e+00  -9.095382e-01 -1.163985e-01 0.000000e+00  -8.913055e-01 -2.983234e-01 0.000000e+00  -9.143230e-01 -4.964720e-01 0.000000e+00  -1.261805e+00 -6.223767e-01 0.000000e+00  -1.522082e+00 -2.859491e-01 0.000000e+00  -1.214038e+00 -2.507056e-01 0.000000e+00  -1.527622e+00 -5.358070e-01 0.000000e+00  3.664461e-01 3.946288e-02 0.000000e+00  8.463024e-01 0.000000e+00 0.000000e+00  -3.409649e-02 8.800205e-02 0.000000e+00  -3.063790e-01 1.375244e-01 0.000000e+00  3.833149e-01 7.065035e-02 0.000000e+00  8.110809e-01 0.000000e+00 0.000000e+00  3.875011e-01 1.123814e-01 0.000000e+00  1.833832e-01 2.979048e-01 0.000000e+00  0.000000e+00 3.813144e-01 0.000000e+00  3.030182e-01 0.000000e+00 0.000000e+00  8.008128e-02 4.979545e-01 0.000000e+00  0.000000e+00 8.163293e-01 0.000000e+00  -1.588876e-02 6.075204e-01 0.000000e+00  3.009367e-01 2.270190e-01 0.000000e+00  6.634715e-01 0.000000e+00 0.000000e+00  3.646862e-01 1.647917e-01 0.000000e+00  -2.352295e-01 5.035424e-01 0.000000e+00  0.000000e+00 7.278106e-01 0.000000e+00  -3.871403e-01 3.254442e-01 0.000000e+00  -4.217757e-01 2.071167e-01 0.000000e+00  -1.767027e-01 5.961054e-01 0.000000e+00  0.000000e+00 8.931913e-01 0.000000e+00  -1.024771e-01 6.360989e-01 0.000000e+00  -1.790373e-01 2.656418e-01 0.000000e+00  -7.838831e-02 4.242913e-01 0.000000e+00  8.545153e-02 2.526355e-01 0.000000e+00  -1.713922e+00 -2.312352e+00 0.000000e+00  -1.664011e+00 -3.445274e+00 0.000000e+00  -1.437640e+00 -1.598359e+00 0.000000e+00  -1.151928e+00 -1.079658e+00 0.000000e+00  -1.115324e+00 -1.620202e+00 0.000000e+00  -8.531420e-01 -1.466208e+00 0.000000e+00  -8.180923e-01 -1.076521e+00 0.000000e+00  -2.997028e-01 1.141097e-01 0.000000e+00  0.000000e+00 4.686921e-01 0.000000e+00  -5.885767e-01 -2.544522e-01 0.000000e+00  -8.709018e-01 -6.461834e-01 0.000000e+00  -2.912284e-01 1.224070e-02 0.000000e+00  0.000000e+00 2.447309e-01 0.000000e+00  -2.767424e-01 -5.601498e-02 0.000000e+00  -2.416416e-01 -7.369078e-02 0.000000e+00  0.000000e+00 2.351699e-02 0.000000e+00  -2.397232e-01 -3.970131e-02 0.000000e+00  -2.492329e-01 -9.313624e-02 0.000000e+00  0.000000e+00 1.049547e-01 0.000000e+00  -2.615621e-01 -8.968860e-02 0.000000e+00  -4.353767e-01 -3.042411e-01 0.000000e+00  -5.536754e-01 -5.191124e-01 0.000000e+00  -6.145883e-01 -6.413095e-01 0.000000e+00  -7.878022e-01 -7.199718e-01 0.000000e+00  -5.107004e-01 -3.756251e-01 0.000000e+00  -6.955236e-01 -7.141005e-01 0.000000e+00  -8.028665e-01 -2.852427e+00 0.000000e+00  0.000000e+00 -4.434275e+00 0.000000e+00  -7.548657e-01 -1.870420e+00 0.000000e+00  -6.739016e-01 -1.222833e+00 0.000000e+00  -4.656279e-01 -2.221999e+00 0.000000e+00  0.000000e+00 -2.338129e+00 0.000000e+00  -3.169687e-01 -1.700281e+00 0.000000e+00  -4.041119e-01 -1.136186e-01 0.000000e+00  -2.472077e-01 0.000000e+00 0.000000e+00  -5.141256e-01 -3.633536e-01 0.000000e+00  -5.975488e-01 -7.334527e-01 0.000000e+00  -4.944093e-01 -1.867443e-01 0.000000e+00  -4.942415e-01 0.000000e+00 0.000000e+00  -5.115615e-01 -2.565483e-01 0.000000e+00  -1.861540e-01 -4.035096e-01 0.000000e+00  -1.781881e-01 0.000000e+00 0.000000e+00  0.000000e+00 -3.961881e-01 0.000000e+00  -3.459711e-01 -3.704991e-01 0.000000e+00  -4.491456e-01 0.000000e+00 0.000000e+00  -4.592856e-01 -3.194545e-01 0.000000e+00  -2.043963e-01 -8.146554e-01 0.000000e+00  0.000000e+00 -1.266310e+00 0.000000e+00  -2.428768e-01 -1.241377e+00 0.000000e+00  -5.604520e-01 -9.382106e-01 0.000000e+00  -4.933958e-01 -6.338837e-01 0.000000e+00  -4.394350e-01 -1.116283e+00 0.000000e+00  -2.584531e+00 5.865700e+00 0.000000e+00  0.000000e+00 7.376356e+00 0.000000e+00  -7.335819e+00 4.994771e+00 0.000000e+00  -1.238786e+00 4.644801e+00 0.000000e+00  0.000000e+00 3.118154e+00 0.000000e+00  -7.046898e-01 3.849014e+00 0.000000e+00  -2.713129e+00 3.658317e+00 0.000000e+00  -2.907131e+00 2.262022e+00 0.000000e+00  -2.375106e+00 2.757842e+00 0.000000e+00  -1.585573e+00 1.504691e+00 0.000000e+00  -1.393933e+00 1.242632e+00 0.000000e+00  -1.464430e+00 1.112250e+00 0.000000e+00  -1.578143e+00 1.931527e+00 0.000000e+00  -1.345980e+00 1.954268e+00 0.000000e+00  -1.381324e+00 2.314816e+00 0.000000e+00  -1.803642e+00 1.812124e+00 0.000000e+00  -1.970187e+00 1.593943e+00 0.000000e+00  -2.062421e+00 2.200807e+00 0.000000e+00  -2.485314e-01 2.451618e+00 0.000000e+00  -1.983678e-01 2.133970e+00 0.000000e+00  0.000000e+00 1.599594e+00 0.000000e+00  -6.005279e-01 2.513610e+00 0.000000e+00  -7.927310e-01 2.303567e+00 0.000000e+00  -1.016038e+00 2.536909e+00 0.000000e+00  -3.269186e-01 2.820159e+00 0.000000e+00  0.000000e+00 2.149546e+00 0.000000e+00  -4.587215e-01 3.269045e+00 0.000000e+00  -1.339121e+00 2.743119e+00 0.000000e+00  -1.148720e+00 3.204808e+00 0.000000e+00  -1.795285e+00 2.859756e+00 0.000000e+00  -9.196777e-02 4.312181e-01 0.000000e+00  0.000000e+00 1.833729e-01 0.000000e+00  -8.635950e-02 2.150206e-01 0.000000e+00  -9.681547e-02 6.518509e-01 0.000000e+00  0.000000e+00 4.978434e-01 0.000000e+00  -1.032169e-01 8.757364e-01 0.000000e+00  -1.922606e-01 6.114609e-01 0.000000e+00  -2.795290e-01 5.906598e-01 0.000000e+00  -2.956538e-01 7.892722e-01 0.000000e+00  -6.093837e-01 1.088762e+00 0.000000e+00  -6.920913e-01 1.082658e+00 0.000000e+00  -6.344604e-01 9.668457e-01 0.000000e+00  -5.606419e-01 1.204658e+00 0.000000e+00  -6.270962e-01 1.368747e+00 0.000000e+00  -4.877902e-01 1.310519e+00 0.000000e+00  -5.096259e-01 1.036932e+00 0.000000e+00  -4.709221e-01 8.669312e-01 0.000000e+00  -4.027308e-01 9.336420e-01 0.000000e+00  -1.410093e-01 1.587624e+00 0.000000e+00  -1.645814e-01 1.849625e+00 0.000000e+00  0.000000e+00 1.185636e+00 0.000000e+00  -2.748278e-01 1.464860e+00 0.000000e+00  -4.490109e-01 1.617105e+00 0.000000e+00  -3.915826e-01 1.402733e+00 0.000000e+00  -1.241841e-01 1.340885e+00 0.000000e+00  0.000000e+00 8.285288e-01 0.000000e+00  -1.120279e-01 1.104671e+00 0.000000e+00  -3.493721e-01 1.194197e+00 0.000000e+00  -2.206189e-01 1.027040e+00 0.000000e+00  -3.183084e-01 9.901168e-01 0.000000e+00  -2.985079e-01 -1.693883e-01 0.000000e+00  -1.466366e-01 -4.146536e-01 0.000000e+00  -1.494032e-01 -3.493120e-01 0.000000e+00  -4.470460e-01 1.300277e-02 0.000000e+00  -4.443536e-01 -5.481473e-02 0.000000e+00  -5.958691e-01 1.989987e-01 0.000000e+00  -4.439308e-01 7.385467e-02 0.000000e+00  -4.361928e-01 1.258358e-01 0.000000e+00  -5.724517e-01 3.102786e-01 0.000000e+00  -7.642051e-01 8.973882e-01 0.000000e+00  -7.467585e-01 1.017327e+00 0.000000e+00  -7.086963e-01 8.516236e-01 0.000000e+00  -8.251733e-01 9.241779e-01 0.000000e+00  -8.952242e-01 1.125897e+00 0.000000e+00  -8.891970e-01 9.288541e-01 0.000000e+00  -7.396770e-01 7.320845e-01 0.000000e+00  -6.412782e-01 5.479879e-01 0.000000e+00  -6.739157e-01 5.327350e-01 0.000000e+00  -1.055367e+00 7.910837e-01 0.000000e+00  -1.219214e+00 1.008009e+00 0.000000e+00  -1.082894e+00 6.974876e-01 0.000000e+00  -1.009911e+00 8.626324e-01 0.000000e+00  -1.068074e+00 1.132218e+00 0.000000e+00  -9.524959e-01 9.087942e-01 0.000000e+00  -8.984741e-01 5.861153e-01 0.000000e+00  -7.520856e-01 3.135134e-01 0.000000e+00  -7.459129e-01 3.895245e-01 0.000000e+00  -8.308658e-01 6.996018e-01 0.000000e+00  -7.290117e-01 4.527965e-01 0.000000e+00  -7.040574e-01 5.009464e-01 0.000000e+00  -7.626567e-01 1.186358e+00 0.000000e+00  -7.527944e-01 1.357181e+00 0.000000e+00  -7.130036e-01 1.526746e+00 0.000000e+00  -8.472378e-01 1.273676e+00 0.000000e+00  -9.459687e-01 1.339002e+00 0.000000e+00  -1.292526e+00 1.331870e+00 0.000000e+00  -1.271249e+00 1.645603e+00 0.000000e+00  -1.137450e+00 1.903564e+00 0.000000e+00  -1.175692e+00 1.375238e+00 0.000000e+00  -1.057091e+00 1.375401e+00 0.000000e+00  -3.795227e-01 1.947201e+00 0.000000e+00  -6.374854e-01 2.068042e+00 0.000000e+00  -9.088112e-01 2.052771e+00 0.000000e+00  -5.278176e-01 1.838653e+00 0.000000e+00  -6.390573e-01 1.689451e+00 0.000000e+00  -9.632588e-01 1.804019e+00 0.000000e+00  -8.232645e-01 1.674323e+00 0.000000e+00  -9.715498e-01 1.564962e+00 0.000000e+00  -1.782622e-01 2.043395e-01 0.000000e+00  -9.002237e-02 0.000000e+00 0.000000e+00  -2.688059e-01 3.933749e-01 0.000000e+00  -3.569295e-01 5.597953e-01 0.000000e+00  -2.619783e-01 1.967485e-01 0.000000e+00  -2.639871e-01 0.000000e+00 0.000000e+00  -3.367876e-01 1.868620e-01 0.000000e+00  -5.883320e-01 8.420659e-01 0.000000e+00  -6.369907e-01 8.417595e-01 0.000000e+00  -5.210958e-01 7.918073e-01 0.000000e+00  -4.421679e-01 6.954037e-01 0.000000e+00  -5.522554e-01 7.106145e-01 0.000000e+00  -5.640247e-01 6.252496e-01 0.000000e+00  -5.249276e-01 5.741781e-01 0.000000e+00  -4.856216e-01 1.463645e-01 0.000000e+00  -5.045724e-01 1.301708e-01 0.000000e+00  -4.851671e-01 0.000000e+00 0.000000e+00  -4.924211e-01 2.911360e-01 0.000000e+00  -5.216806e-01 3.844511e-01 0.000000e+00  -5.052548e-01 4.340245e-01 0.000000e+00  -4.504165e-01 1.614065e-01 0.000000e+00  -4.007047e-01 0.000000e+00 0.000000e+00  -4.002578e-01 1.750050e-01 0.000000e+00  -4.216089e-01 5.227626e-01 0.000000e+00  -4.715523e-01 4.804624e-01 0.000000e+00  -4.080759e-01 3.492370e-01 0.000000e+00  -1.280252e-01 1.764530e-03 0.000000e+00  -1.217765e-01 0.000000e+00 0.000000e+00  0.000000e+00 -3.283648e-02 0.000000e+00  -2.380960e-01 2.008728e-02 0.000000e+00  -3.280247e-01 0.000000e+00 0.000000e+00  -3.294749e-01 3.958035e-02 0.000000e+00  -1.277216e-01 3.567654e-03 0.000000e+00  0.000000e+00 -6.107167e-02 0.000000e+00  -1.280892e-01 4.885888e-03 0.000000e+00  -1.317044e-01 -6.692265e-03 0.000000e+00  -1.339486e-01 -1.898362e-02 0.000000e+00  0.000000e+00 -1.428254e-01 0.000000e+00  -2.435474e-01 8.789793e-02 0.000000e+00  -3.409627e-01 1.772837e-01 0.000000e+00  -3.348727e-01 1.479204e-01 0.000000e+00  -1.299637e-01 7.545832e-04 0.000000e+00  0.000000e+00 -9.624933e-02 0.000000e+00  -1.287619e-01 4.285387e-03 0.000000e+00  -4.900306e-01 9.533391e-02 0.000000e+00  -5.062808e-01 1.130869e-01 0.000000e+00  -5.055814e-01 0.000000e+00 0.000000e+00  -4.567131e-01 1.520918e-01 0.000000e+00  -4.621854e-01 2.247211e-01 0.000000e+00  -4.056182e-01 1.696610e-01 0.000000e+00  -4.553307e-01 7.708842e-02 0.000000e+00  -4.545741e-01 0.000000e+00 0.000000e+00  -4.018690e-01 5.847255e-02 0.000000e+00  -3.308618e-01 1.143311e-01 0.000000e+00  -3.288662e-01 7.774992e-02 0.000000e+00  -2.381858e-01 5.875361e-02 0.000000e+00  -1.503330e-01 -2.867791e-01 0.000000e+00  0.000000e+00 -5.239537e-01 0.000000e+00  -2.953280e-01 -5.353967e-02 0.000000e+00  -4.251274e-01 1.676577e-01 0.000000e+00  -1.497572e-01 -2.287650e-01 0.000000e+00  0.000000e+00 -4.001242e-01 0.000000e+00  -1.480407e-01 -1.765618e-01 0.000000e+00  -6.513735e-01 6.898576e-01 0.000000e+00  -6.599254e-01 7.900315e-01 0.000000e+00  -6.084134e-01 5.473737e-01 0.000000e+00  -5.316717e-01 3.705306e-01 0.000000e+00  -5.770575e-01 5.321330e-01 0.000000e+00  -5.484192e-01 5.038297e-01 0.000000e+00  -4.874987e-01 3.783120e-01 0.000000e+00  -1.395677e-01 -6.132519e-02 0.000000e+00  -1.366134e-01 -3.695962e-02 0.000000e+00  0.000000e+00 -2.069471e-01 0.000000e+00  -2.677859e-01 8.144722e-02 0.000000e+00  -3.709212e-01 2.277657e-01 0.000000e+00  -3.840520e-01 2.281809e-01 0.000000e+00  -1.426272e-01 -9.259407e-02 0.000000e+00  0.000000e+00 -2.926611e-01 0.000000e+00  -1.455503e-01 -1.310260e-01 0.000000e+00  -4.1201