<?xml version="1.0"?>
<VTKFile type="UnstructuredGrid"  version="0.1"  >
<UnstructuredGrid>
<Piece  NumberOfPoints="1105" NumberOfCells="2048">
<Points>
<DataArray  type="Float64"  NumberOfComponents="3"  format="ascii">0 0 0  1 0 0  1 1 0  0 1 0  -1 1 0  -1 0 0  -1 -1 0  0 -1 0  1 -1 0  1 0 0  0.5 0.5 0  0 0.5 0  0.5 0 0  0.5 1 0  1 0.5 0  -0.5 1 0  -0.5 0.5 0  -1 0.5 0  -0.5 0 0  -0.5 -0.5 0  0 -0.5 0  -0.5 -1 0  -1 -0.5 0  0.5 -1 0  0.5 -0.5 0  1 -0.5 0  0.5 0 0  0.25 0.25 0  0.25 0 0  0 0.25 0  0.5 0.25 0  0.75 0 0  0.75 0.25 0  0.25 0.5 0  0 0.75 0  0.25 0.75 0  0.75 0.5 0  1 0.25 0  0.75 0.75 0  1 0.75 0  0.75 1 0  0.5 0.75 0  0.25 1 0  -0.25 0.5 0  -0.25 0.25 0  -0.25 0.75 0  -0.25 1 0  -0.5 0.75 0  -0.75 0.75 0  -0.75 1 0  -0.5 0.25 0  -0.25 0 0  -0.75 0.5 0  -1 0.75 0  -0.75 0.25 0  -0.75 0 0  -1 0.25 0  -0.25 -0.25 0  0 -0.25 0  -0.5 -0.25 0  -0.75 -0.25 0  -0.25 -0.5 0  0 -0.75 0  -0.25 -0.75 0  -0.75 -0.5 0  -1 -0.25 0  -0.75 -0.75 0  -1 -0.75 0  -0.75 -1 0  -0.5 -0.75 0  -0.25 -1 0  0.25 -0.5 0  0.25 -0.25 0  0.25 -0.75 0  0.25 -1 0  0.5 -0.75 0  0.75 -0.75 0  0.75 -1 0  0.5 -0.25 0  0.25 0 0  0.75 -0.5 0  1 -0.75 0  0.75 -0.25 0  0.75 0 0  1 -0.25 0  0.125 0.125 0  0 0.125 0  0.125 0 0  0.125 0.25 0  0 0.375 0  0.125 0.375 0  0.25 0.125 0  0.375 0 0  0.375 0.125 0  0.75 0.125 0  0.875 0.125 0  0.875 0 0  0.625 0.25 0  0.625 0.375 0  0.5 0.375 0  0.625 0.125 0  0.625 0 0  0.5 0.125 0  0.125 0.75 0  0.125 0.875 0  0 0.875 0  0.25 0.625 0  0.375 0.625 0  0.375 0.5 0  0.125 0.625 0  0 0.625 0  0.125 0.5 0  0.375 0.375 0  0.25 0.375 0  0.375 0.25 0  0.875 0.25 0  1 0.125 0  0.75 0.375 0  0.625 0.5 0  0.875 0.375 0  1 0.375 0  0.875 0.5 0  0.875 0.875 0  0.875 1 0  1 0.875 0  0.75 0.875 0  0.625 1 0  0.625 0.875 0  0.875 0.75 0  1 0.625 0  0.875 0.625 0  0.25 0.875 0  0.125 1 0  0.375 0.75 0  0.5 0.625 0  0.375 0.875 0  0.375 1 0  0.5 0.875 0  0.625 0.625 0  0.625 0.75 0  0.75 0.625 0  -0.125 0.25 0  -0.125 0.125 0  -0.125 0.375 0  -0.125 0.5 0  -0.25 0.375 0  -0.375 0.375 0  -0.375 0.5 0  -0.125 0.875 0  -0.125 1 0  -0.125 0.75 0  -0.125 0.625 0  -0.25 0.875 0  -0.375 1 0  -0.375 0.875 0  -0.75 0.875 0  -0.875 1 0  -0.875 0.875 0  -0.625 0.875 0  -0.625 1 0  -0.5 0.875 0  -0.625 0.75 0  -0.625 0.625 0  -0.5 0.625 0  -0.25 0.625 0  -0.375 0.75 0  -0.375 0.625 0  -0.25 0.125 0  -0.125 0 0  -0.375 0.25 0  -0.5 0.375 0  -0.375 0.125 0  -0.375 0 0  -0.5 0.125 0  -0.875 0.75 0  -1 0.875 0  -0.75 0.625 0  -0.625 0.5 0  -0.875 0.625 0  -1 0.625 0  -0.875 0.5 0  -0.875 0.125 0  -1 0.125 0  -0.875 0 0  -0.875 0.25 0  -1 0.375 0  -0.875 0.375 0  -0.75 0.125 0  -0.625 0 0  -0.625 0.125 0  -0.625 0.375 0  -0.75 0.375 0  -0.625 0.25 0  -0.125 -0.125 0  0 -0.125 0  -0.25 -0.125 0  -0.375 -0.125 0  -0.125 -0.25 0  0 -0.375 0  -0.125 -0.375 0  -0.75 -0.125 0  -0.875 -0.125 0  -0.625 -0.125 0  -0.5 -0.125 0  -0.625 -0.25 0  -0.625 -0.375 0  -0.5 -0.375 0  -0.125 -0.75 0  -0.125 -0.875 0  0 -0.875 0  -0.25 -0.625 0  -0.375 -0.625 0  -0.375 -0.5 0  -0.125 -0.625 0  0 -0.625 0  -0.125 -0.5 0  -0.375 -0.25 0  -0.375 -0.375 0  -0.25 -0.375 0  -0.875 -0.25 0  -1 -0.125 0  -0.75 -0.375 0  -0.625 -0.5 0  -0.875 -0.375 0  -1 -0.375 0  -0.875 -0.5 0  -0.875 -0.875 0  -0.875 -1 0  -1 -0.875 0  -0.75 -0.875 0  -0.625 -1 0  -0.625 -0.875 0  -0.875 -0.75 0  -1 -0.625 0  -0.875 -0.625 0  -0.25 -0.875 0  -0.125 -1 0  -0.375 -0.75 0  -0.5 -0.625 0  -0.375 -0.875 0  -0.375 -1 0  -0.5 -0.875 0  -0.625 -0.625 0  -0.625 -0.75 0  -0.75 -0.625 0  0.125 -0.25 0  0.125 -0.125 0  0.125 -0.375 0  0.125 -0.5 0  0.25 -0.375 0  0.375 -0.375 0  0.375 -0.5 0  0.125 -0.875 0  0.125 -1 0  0.125 -0.75 0  0.125 -0.625 0  0.25 -0.875 0  0.375 -1 0  0.375 -0.875 0  0.75 -0.875 0  0.875 -1 0  0.875 -0.875 0  0.625 -0.875 0  0.625 -1 0  0.5 -0.875 0  0.625 -0.75 0  0.625 -0.625 0  0.5 -0.625 0  0.25 -0.625 0  0.375 -0.75 0  0.375 -0.625 0  0.25 -0.125 0  0.125 0 0  0.375 -0.25 0  0.5 -0.375 0  0.375 -0.125 0  0.375 0 0  0.5 -0.125 0  0.875 -0.75 0  1 -0.875 0  0.75 -0.625 0  0.625 -0.5 0  0.875 -0.625 0  1 -0.625 0  0.875 -0.5 0  0.875 -0.125 0  1 -0.125 0  0.875 0 0  0.875 -0.25 0  1 -0.375 0  0.875 -0.375 0  0.75 -0.125 0  0.625 0 0  0.625 -0.125 0  0.625 -0.375 0  0.75 -0.375 0  0.625 -0.25 0  0.0625 0.0625 0  0.0625 0 0  0 0.0625 0  0.125 0.0625 0  0.1875 0 0  0.1875 0.0625 0  0.0625 0.125 0  0 0.1875 0  0.0625 0.1875 0  0.0625 0.375 0  0.0625 0.4375 0  0 0.4375 0  0.125 0.3125 0  0.1875 0.3125 0  0.1875 0.25 0  0.0625 0.3125 0  0 0.3125 0  0.0625 0.25 0  0.375 0.0625 0  0.4375 0.0625 0  0.4375 0 0  0.3125 0.125 0  0.3125 0.1875 0  0.25 0.1875 0  0.3125 0.0625 0  0.3125 0 0  0.25 0.0625 0  0.1875 0.1875 0  0.1875 0.125 0  0.125 0.1875 0  0.875 0.0625 0  0.9375 0 0  0.9375 0.0625 0  0.8125 0.0625 0  0.8125 0 0  0.75 0.0625 0  0.8125 0.125 0  0.8125 0.1875 0  0.75 0.1875 0  0.5625 0.375 0  0.5 0.4375 0  0.5625 0.4375 0  0.5625 0.3125 0  0.5 0.3125 0  0.5625 0.25 0  0.625 0.3125 0  0.6875 0.3125 0  0.6875 0.25 0  0.5625 0.0625 0  0.5 0.0625 0  0.5625 0 0  0.5625 0.125 0  0.5 0.1875 0  0.5625 0.1875 0  0.625 0.0625 0  0.6875 0 0  0.6875 0.0625 0  0.625 0.1875 0  0.6875 0.125 0  0.6875 0.1875 0  0.0625 0.875 0  0 0.9375 0  0.0625 0.9375 0  0.0625 0.8125 0  0 0.8125 0  0.0625 0.75 0  0.125 0.8125 0  0.1875 0.8125 0  0.1875 0.75 0  0.375 0.5625 0  0.4375 0.5 0  0.4375 0.5625 0  0.3125 0.5625 0  0.3125 0.5 0  0.25 0.5625 0  0.3125 0.625 0  0.3125 0.6875 0  0.25 0.6875 0  0.0625 0.5625 0  0.0625 0.5 0  0 0.5625 0  0.125 0.5625 0  0.1875 0.5 0  0.1875 0.5625 0  0.0625 0.625 0  0 0.6875 0  0.0625 0.6875 0  0.1875 0.625 0  0.125 0.6875 0  0.1875 0.6875 0  0.4375 0.4375 0  0.4375 0.375 0  0.4375 0.3125 0  0.375 0.4375 0  0.3125 0.4375 0  0.125 0.4375 0  0.1875 0.375 0  0.25 0.3125 0  0.1875 0.4375 0  0.25 0.4375 0  0.4375 0.125 0  0.375 0.1875 0  0.3125 0.25 0  0.4375 0.1875 0  0.4375 0.25 0  0.3125 0.3125 0  0.375 0.3125 0  0.3125 0.375 0  0.9375 0.125 0  1 0.0625 0  0.875 0.1875 0  0.8125 0.25 0  0.9375 0.1875 0  1 0.1875 0  0.9375 0.25 0  0.625 0.4375 0  0.5625 0.5 0  0.6875 0.375 0  0.75 0.3125 0  0.6875 0.4375 0  0.6875 0.5 0  0.75 0.4375 0  0.9375 0.4375 0  0.9375 0.5 0  1 0.4375 0  0.875 0.4375 0  0.8125 0.5 0  0.8125 0.4375 0  0.9375 0.375 0  1 0.3125 0  0.9375 0.3125 0  0.8125 0.3125 0  0.8125 0.375 0  0.875 0.3125 0  0.9375 0.9375 0  1 0.9375 0  0.9375 1 0  0.9375 0.875 0  1 0.8125 0  0.9375 0.8125 0  0.875 0.9375 0  0.8125 1 0  0.8125 0.9375 0  0.625 0.9375 0  0.5625 0.9375 0  0.5625 1 0  0.6875 0.875 0  0.6875 0.8125 0  0.75 0.8125 0  0.6875 0.9375 0  0.6875 1 0  0.75 0.9375 0  0.9375 0.625 0  0.9375 0.5625 0  1 0.5625 0  0.875 0.6875 0  0.8125 0.6875 0  0.8125 0.75 0  0.9375 0.6875 0  1 0.6875 0  0.9375 0.75 0  0.8125 0.8125 0  0.875 0.8125 0  0.8125 0.875 0  0.125 0.9375 0  0.0625 1 0  0.1875 0.875 0  0.25 0.8125 0  0.1875 0.9375 0  0.1875 1 0  0.25 0.9375 0  0.4375 0.625 0  0.5 0.5625 0  0.375 0.6875 0  0.3125 0.75 0  0.4375 0.6875 0  0.5 0.6875 0  0.4375 0.75 0  0.4375 0.9375 0  0.5 0.9375 0  0.4375 1 0  0.4375 0.875 0  0.5 0.8125 0  0.4375 0.8125 0  0.375 0.9375 0  0.3125 1 0  0.3125 0.9375 0  0.3125 0.8125 0  0.375 0.8125 0  0.3125 0.875 0  0.5625 0.5625 0  0.625 0.5625 0  0.6875 0.5625 0  0.5625 0.625 0  0.5625 0.6875 0  0.5625 0.875 0  0.625 0.8125 0  0.6875 0.75 0  0.5625 0.8125 0  0.5625 0.75 0  0.875 0.5625 0  0.8125 0.5625 0  0.75 0.5625 0  0.8125 0.625 0  0.75 0.6875 0  0.6875 0.625 0  0.6875 0.6875 0  0.625 0.6875 0  -0.0625 0.125 0  -0.0625 0.0625 0  -0.0625 0.1875 0  -0.0625 0.25 0  -0.125 0.1875 0  -0.1875 0.1875 0  -0.1875 0.25 0  -0.0625 0.4375 0  -0.0625 0.5 0  -0.0625 0.375 0  -0.0625 0.3125 0  -0.125 0.4375 0  -0.1875 0.5 0  -0.1875 0.4375 0  -0.375 0.4375 0  -0.4375 0.5 0  -0.4375 0.4375 0  -0.3125 0.4375 0  -0.3125 0.5 0  -0.25 0.4375 0  -0.3125 0.375 0  -0.3125 0.3125 0  -0.25 0.3125 0  -0.125 0.3125 0  -0.1875 0.375 0  -0.1875 0.3125 0  -0.0625 0.9375 0  -0.0625 1 0  -0.0625 0.875 0  -0.0625 0.8125 0  -0.125 0.9375 0  -0.1875 1 0  -0.1875 0.9375 0  -0.0625 0.625 0  -0.0625 0.5625 0  -0.0625 0.6875 0  -0.0625 0.75 0  -0.125 0.6875 0  -0.1875 0.6875 0  -0.1875 0.75 0  -0.375 0.9375 0  -0.4375 0.9375 0  -0.4375 1 0  -0.3125 0.875 0  -0.3125 0.8125 0  -0.25 0.8125 0  -0.3125 0.9375 0  -0.3125 1 0  -0.25 0.9375 0  -0.125 0.8125 0  -0.1875 0.8125 0  -0.1875 0.875 0  -0.875 0.9375 0  -0.9375 0.9375 0  -0.9375 1 0  -0.8125 0.875 0  -0.8125 0.8125 0  -0.75 0.8125 0  -0.8125 0.9375 0  -0.8125 1 0  -0.75 0.9375 0  -0.5625 0.9375 0  -0.5 0.9375 0  -0.5625 1 0  -0.5625 0.875 0  -0.5 0.8125 0  -0.5625 0.8125 0  -0.625 0.9375 0  -0.6875 1 0  -0.6875 0.9375 0  -0.5625 0.625 0  -0.5 0.5625 0  -0.5625 0.5625 0  -0.5625 0.6875 0  -0.5 0.6875 0  -0.5625 0.75 0  -0.625 0.6875 0  -0.6875 0.6875 0  -0.6875 0.75 0  -0.625 0.8125 0  -0.6875 0.8125 0  -0.6875 0.875 0  -0.125 0.5625 0  -0.1875 0.5625 0  -0.25 0.5625 0  -0.1875 0.625 0  -0.25 0.6875 0  -0.4375 0.875 0  -0.375 0.8125 0  -0.3125 0.75 0  -0.4375 0.8125 0  -0.4375 0.75 0  -0.4375 0.5625 0  -0.375 0.5625 0  -0.3125 0.5625 0  -0.4375 0.625 0  -0.4375 0.6875 0  -0.3125 0.625 0  -0.3125 0.6875 0  -0.375 0.6875 0  -0.125 0.0625 0  -0.0625 0 0  -0.1875 0.125 0  -0.25 0.1875 0  -0.1875 0.0625 0  -0.1875 0 0  -0.25 0.0625 0  -0.4375 0.375 0  -0.5 0.4375 0  -0.375 0.3125 0  -0.3125 0.25 0  -0.4375 0.3125 0  -0.5 0.3125 0  -0.4375 0.25 0  -0.4375 0.0625 0  -0.5 0.0625 0  -0.4375 0 0  -0.4375 0.125 0  -0.5 0.1875 0  -0.4375 0.1875 0  -0.375 0.0625 0  -0.3125 0 0  -0.3125 0.0625 0  -0.3125 0.1875 0  -0.375 0.1875 0  -0.3125 0.125 0  -0.9375 0.875 0  -1 0.9375 0  -0.875 0.8125 0  -0.8125 0.75 0  -0.9375 0.8125 0  -1 0.8125 0  -0.9375 0.75 0  -0.625 0.5625 0  -0.5625 0.5 0  -0.6875 0.625 0  -0.75 0.6875 0  -0.6875 0.5625 0  -0.6875 0.5 0  -0.75 0.5625 0  -0.9375 0.5625 0  -0.9375 0.5 0  -1 0.5625 0  -0.875 0.5625 0  -0.8125 0.5 0  -0.8125 0.5625 0  -0.9375 0.625 0  -1 0.6875 0  -0.9375 0.6875 0  -0.8125 0.6875 0  -0.8125 0.625 0  -0.875 0.6875 0  -0.9375 0.0625 0  -0.9375 0 0  -1 0.0625 0  -0.875 0.0625 0  
[...]
<PointData  Vectors="u"> 
<DataArray  type="Float64"  Name="u"  NumberOfComponents="3" format="ascii">-1.0267010696712909e+01 -1.1279374665922361e+00 0.0000000000000000e+00  0.0000000000000000e+00 0.0000000000000000e+00 0.0000000000000000e+00  0.0000000000000000e+00 0.0000000000000000e+00 0.0000000000000000e+00  0.0000000000000000e+00 3.1144301584754391e-01 0.0000000000000000e+00  0.0000000000000000e+00 0.0000000000000000e+00 0.0000000000000000e+00  -5.1242011240237306e-01 0.0000000000000000e+00 0.0000000000000000e+00  0.0000000000000000e+00 0.0000000000000000e+00 0.0000000000000000e+00  0.0000000000000000e+00 -7.4855399865767180e-01 0.0000000000000000e+00  0.0000000000000000e+00 0.0000000000000000e+00 0.0000000000000000e+00  0.0000000000000000e+00 0.0000000000000000e+00 0.0000000000000000e+00  -9.4738792112835413e-01 1.7920468113671875e+00 0.0000000000000000e+00  -2.0734188080788685e+00 2.0379018245742158e+00 0.0000000000000000e+00  0.0000000000000000e+00 2.9755324968077961e+00 0.0000000000000000e+00  0.0000000000000000e+00 5.0826507866320603e-01 0.0000000000000000e+00  -6.1821834960459598e-01 0.0000000000000000e+00 0.0000000000000000e+00  0.0000000000000000e+00 -3.3223031662434072e-01 0.0000000000000000e+00  -1.6082677222662678e+00 4.7050855750419324e-01 0.0000000000000000e+00  -1.7255887567357814e-01 0.0000000000000000e+00 0.0000000000000000e+00  -2.9531210267867891e+00 6.2114472834955317e-02 0.0000000000000000e+00  -1.7733427019488937e+00 -4.6675719449419883e-01 0.0000000000000000e+00  -2.8751835753932209e+00 -1.8768444572683607e+00 0.0000000000000000e+00  0.0000000000000000e+00 2.2473142127773912e-01 0.0000000000000000e+00  -2.0473967384186378e-01 0.0000000000000000e+00 0.0000000000000000e+00  0.0000000000000000e+00 -1.7953145177323391e+00 0.0000000000000000e+00  -6.7433212557694533e-01 -1.6323180075338886e+00 0.0000000000000000e+00  -9.4920245708147472e-02 0.0000000000000000e+00 0.0000000000000000e+00  0.0000000000000000e+00 -2.2594057946113786e+00 0.0000000000000000e+00  -1.6638126436602647e+00 3.7494959389034466e+00 0.0000000000000000e+00  0.0000000000000000e+00 5.3085187359478399e+00 0.0000000000000000e+00  -3.6908108955777132e+00 3.5388796660644091e+00 0.0000000000000000e+00  -7.7638356136092368e-01 2.5377012117002877e+00 0.0000000000000000e+00  0.0000000000000000e+00 1.4327512013866868e+00 0.0000000000000000e+00  -4.8795284550066798e-01 1.2639135592395176e+00 0.0000000000000000e+00  -1.4719011210632265e+00 2.2793894809558983e+00 0.0000000000000000e+00  -9.8749257854838002e-01 1.0793780884137754e+00 0.0000000000000000e+00  -8.2006496282790853e-01 1.2826520788160203e+00 0.0000000000000000e+00  -6.8630942897940628e-01 9.5783488819931284e-01 0.0000000000000000e+00  -4.2336137741129115e-01 0.0000000000000000e+00 0.0000000000000000e+00  -5.0945325822499832e-01 6.1683265050757008e-01 0.0000000000000000e+00  -4.7689786519474914e-01 0.0000000000000000e+00 0.0000000000000000e+00  0.0000000000000000e+00 2.8708067855531738e-01 0.0000000000000000e+00  -6.2703494467896548e-01 1.0953151657252655e+00 0.0000000000000000e+00  0.0000000000000000e+00 5.2876955125389913e-01 0.0000000000000000e+00  -2.1247799631291562e+00 1.1989637806325526e+00 0.0000000000000000e+00  -3.6472499336074944e+00 1.4372478797178683e+00 0.0000000000000000e+00  -9.7011726069925686e-01 5.9996785816196141e-01 0.0000000000000000e+00  0.0000000000000000e+00 -4.4157870690520115e-02 0.0000000000000000e+00  -7.3611405337044034e-01 1.3383171203068187e-01 0.0000000000000000e+00  -3.7564409060285864e-01 -9.9394520789240867e-02 0.0000000000000000e+00  0.0000000000000000e+00 -3.5698019444163609e-01 0.0000000000000000e+00  -2.4858506793730011e+00 4.9217868936412756e-01 0.0000000000000000e+00  -5.0225552666320175e+00 1.3442351793418905e-01 0.0000000000000000e+00  -8.9253980723582838e-01 8.0355150926313235e-02 0.0000000000000000e+00  7.1494814598638831e-03 0.0000000000000000e+00 0.0000000000000000e+00  -1.3769836608213097e+00 1.2064530443916043e-01 0.0000000000000000e+00  -1.6047903768206888e+00 2.3508535033004752e-02 0.0000000000000000e+00  -4.0017600487126426e-01 0.0000000000000000e+00 0.0000000000000000e+00  -3.8647587424144900e+00 -1.2377358018574096e+00 0.0000000000000000e+00  -4.3559802430773900e+00 -3.3160043113438555e+00 0.0000000000000000e+00  -2.5983542733751839e+00 -4.0214554915221290e-01 0.0000000000000000e+00  -1.4411213987500300e+00 -8.7452318860703523e-02 0.0000000000000000e+00  -2.4548474175879349e+00 -1.1769759331252385e+00 0.0000000000000000e+00  -1.6579935629710816e+00 -1.1035163856731760e+00 0.0000000000000000e+00  -1.2309727841005531e+00 -7.9646985816402316e-01 0.0000000000000000e+00  -9.8480466511994991e-01 -8.1673316114640557e-02 0.0000000000000000e+00  -4.2779104097855497e-01 0.0000000000000000e+00 0.0000000000000000e+00  -4.4286421929711867e-01 6.1291023798295832e-02 0.0000000000000000e+00  4.9832795794616967e-03 0.0000000000000000e+00 0.0000000000000000e+00  0.0000000000000000e+00 3.3089230256134139e-01 0.0000000000000000e+00  -8.5894716152057393e-01 -2.2610722759352081e-01 0.0000000000000000e+00  0.0000000000000000e+00 -2.4110523402997824e-01 0.0000000000000000e+00  -1.5806155701520557e+00 -2.1103482062196091e+00 0.0000000000000000e+00  -1.7220738188365885e+00 -3.1768262704409125e+00 0.0000000000000000e+00  -9.1874948180453209e-01 -1.7596544095534437e+00 0.0000000000000000e+00  0.0000000000000000e+00 -2.0095874589355813e+00 0.0000000000000000e+00  -3.8448592726121111e-01 -1.5087859684354676e+00 0.0000000000000000e+00  -1.0179621615378126e-01 -8.5049347963712851e-01 0.0000000000000000e+00  0.0000000000000000e+00 -1.0414374438177303e+00 0.0000000000000000e+00  -6.0007713042471511e-01 -2.0409792586287496e+00 0.0000000000000000e+00  0.0000000000000000e+00 -4.3447331286484765e+00 0.0000000000000000e+00  -2.2912569955578288e-01 -8.6331815686943381e-01 0.0000000000000000e+00  -1.5595387027979577e-02 0.0000000000000000e+00 0.0000000000000000e+00  -2.0516883656576643e-01 -9.8341998400190767e-01 0.0000000000000000e+00  0.0000000000000000e+00 -1.0114174428507197e+00 0.0000000000000000e+00  -9.4520098914619891e-02 0.0000000000000000e+00 0.0000000000000000e+00  -2.5432821393498379e+00 5.7942058524370861e+00 0.0000000000000000e+00  -5.6195317571623065e+00 5.2213834228553306e+00 0.0000000000000000e+00  0.0000000000000000e+00 8.0609680899106095e+00 0.0000000000000000e+00  -2.5969031117863772e+00 4.0438000576507367e+00 0.0000000000000000e+00  -2.7448354162276241e+00 2.6628848100902514e+00 0.0000000000000000e+00  -2.2281197401318260e+00 2.9928031110149660e+00 0.0000000000000000e+00  -1.2045988673381354e+00 4.6746557569924851e+00 0.0000000000000000e+00  0.0000000000000000e+00 3.9394400069075379e+00 0.0000000000000000e+00  -6.8479142291052941e-01 3.6673660110717803e+00 0.0000000000000000e+00  -2.6629197882295896e-01 1.3626220779293075e+00 0.0000000000000000e+00  -2.3373083714360487e-01 6.7814413721990086e-01 0.0000000000000000e+00  0.0000000000000000e+00 7.2996485495984087e-01 0.0000000000000000e+00  -5.9207222487254396e-01 1.8985113620466549e+00 0.0000000000000000e+00  -7.4766826874182590e-01 1.6628983889725331e+00 0.0000000000000000e+00  -9.3772109540292803e-01 2.1723221037127325e+00 0.0000000000000000e+00  -3.3028351308899279e-01 2.0689383710231608e+00 0.0000000000000000e+00  0.0000000000000000e+00 2.1688703573420858e+00 0.0000000000000000e+00  -4.4994481267023229e-01 2.8221882234612905e+00 0.0000000000000000e+00  -9.1765259885075645e-01 1.2292731417792977e+00 0.0000000000000000e+00  -4.6398962003165778e-01 8.1515811902848823e-01 0.0000000000000000e+00  -4.8907162648050118e-01 6.7600609732344352e-01 0.0000000000000000e+00  -1.1747346725797154e+00 1.7405026001990536e+00 0.0000000000000000e+00  -9.8985051549178305e-01 1.6408119077706622e+00 0.0000000000000000e+00  -1.1758603255491302e+00 2.1013483621043796e+00 0.0000000000000000e+00  -1.3622409565226432e+00 1.7032777604767095e+00 0.0000000000000000e+00  -1.5071169718025410e+00 1.5263586181781186e+00 0.0000000000000000e+00  -1.8001284371243365e+00 2.2680380952208323e+00 0.0000000000000000e+00  -1.2347931137155237e+00 2.6193735321730056e+00 0.0000000000000000e+00  -1.6702794501194813e+00 2.9353313397122731e+00 0.0000000000000000e+00  -1.0985821484914342e+00 3.1732967868098259e+00 0.0000000000000000e+00  -4.3482282600466143e-01 6.3203310852578409e-01 0.0000000000000000e+00  -2.2814125316602124e-01 0.0000000000000000e+00 0.0000000000000000e+00  -6.3334465496229087e-01 1.1224313390593039e+00 0.0000000000000000e+00  -7.8771002183732264e-01 1.4000619973443404e+00 0.0000000000000000e+00  -5.7365882292009429e-01 5.6550023347357325e-01 0.0000000000000000e+00  -5.5891080411226801e-01 0.0000000000000000e+00 0.0000000000000000e+00  -6.3237239423703406e-01 4.8638146271227817e-01 0.0000000000000000e+00  -2.8091188413888052e-01 2.3372929453356572e-01 0.0000000000000000e+00  0.0000000000000000e+00 1.3285385510101791e-01 0.0000000000000000e+00  -2.7348644835954811e-01 0.0000000000000000e+00 0.0000000000000000e+00  -2.9198784938964695e-01 4.5592935802978052e-01 0.0000000000000000e+00  0.0000000000000000e+00 4.1684059454959094e-01 0.0000000000000000e+00  -3.1287274264709258e-01 6.4794438280388011e-01 0.0000000000000000e+00  -4.8448242227136973e-01 3.1682721457053231e-01 0.0000000000000000e+00  -5.9191772915445207e-01 0.0000000000000000e+00 0.0000000000000000e+00  -6.0293643454951673e-01 4.0182940442796006e-01 0.0000000000000000e+00  -4.2535047523755631e-01 8.8405789780163191e-01 0.0000000000000000e+00  0.0000000000000000e+00 4.4718745236297086e-01 0.0000000000000000e+00  -7.1762543688474356e-01 1.2345806320403885e+00 0.0000000000000000e+00  -8.3496416679606811e-01 1.4292040963386812e+00 0.0000000000000000e+00  -3.8271689147630694e-01 8.7535208817724852e-01 0.0000000000000000e+00  0.0000000000000000e+00 5.4851750410009048e-01 0.0000000000000000e+00  -3.4371642511215500e-01 7.9285106687666429e-01 0.0000000000000000e+00  -7.1967676481535270e-01 1.1354889099623251e+00 0.0000000000000000e+00  -5.5681236649183785e-01 8.8276731297363376e-01 0.0000000000000000e+00  -6.4357674269437759e-01 7.8592978126539559e-01 0.0000000000000000e+00  -4.0012432984211346e+00 2.3721341902700477e+00 0.0000000000000000e+00  -5.5126733952130040e+00 2.1729389939987223e+00 0.0000000000000000e+00  -2.9563501521661530e+00 2.0433690149708252e+00 0.0000000000000000e+00  -2.1919923022390768e+00 1.6434955797986757e+00 0.0000000000000000e+00  -2.8264849800103709e+00 1.4086825022539129e+00 0.0000000000000000e+00  -2.4894849433085078e+00 9.0186068273726816e-01 0.0000000000000000e+00  -1.9111614862494044e+00 7.9477716026249545e-01 0.0000000000000000e+00  -4.9202541486635121e-01 4.8614600407997483e-01 0.0000000000000000e+00  0.0000000000000000e+00 1.3922913623066377e-01 0.0000000000000000e+00  -1.0084252432517169e+00 8.5701496611745565e-01 0.0000000000000000e+00  -1.5645847394704442e+00 1.2435857559808554e+00 0.0000000000000000e+00  -4.6833546742306409e-01 2.7408617240679850e-01 0.0000000000000000e+00  0.0000000000000000e+00 -2.1031934541492575e-01 0.0000000000000000e+00  -4.1856085726972825e-01 7.1177365243230137e-02 0.0000000000000000e+00  -1.6084378731073068e-01 -2.2604420093772129e-01 0.0000000000000000e+00  0.0000000000000000e+00 -2.2916477877143104e-01 0.0000000000000000e+00  -5.6236550384809091e-02 -1.6424187461304765e-01 0.0000000000000000e+00  -2.5926502413380120e-01 -1.9867819507041262e-01 0.0000000000000000e+00  0.0000000000000000e+00 -3.8704714730074541e-01 0.0000000000000000e+00  -3.4696948097988173e-01 -9.4019744632851829e-02 0.0000000000000000e+00  -5.6555909850705399e-01 -2.0043894140688284e-02 0.0000000000000000e+00  -9.0444615139417239e-01 1.2802775480758022e-01 0.0000000000000000e+00  -1.1596910126454461e+00 3.2800904638074241e-01 0.0000000000000000e+00  -1.5157942930649135e+00 9.1463183404358983e-01 0.0000000000000000e+00  -8.7551743548513283e-01 3.4804038273508220e-01 0.0000000000000000e+00  -1.3721153922135252e+00 5.9674007083601477e-01 0.0000000000000000e+00  -4.5180942316602088e+00 1.0640806397576423e+00 0.0000000000000000e+00  -7.2263836716372092e+00 1.4541139649762930e-01 0.0000000000000000e+00  -3.0787328996714201e+00 8.5323706286945511e-01 0.0000000000000000e+00  -2.0630330150664342e+00 5.3528288690744807e-01 0.0000000000000000e+00  -3.5838420061148981e+00 5.7814403840444750e-01 0.0000000000000000e+00  -3.8226242690857912e+00 9.2293772603878610e-02 0.0000000000000000e+00  -2.8100339634257807e+00 3.2466728902593017e-01 0.0000000000000000e+00  -1.7528762151942470e-01 -9.5591454984790075e-02 0.0000000000000000e+00  2.6691474059462410e-02 0.0000000000000000e+00 0.0000000000000000e+00  -6.2583013952701882e-01 4.9140920520515975e-03 0.0000000000000000e+00  -1.2598502471456345e+00 2.3378327114152278e-01 0.0000000000000000e+00  -3.3678817311005171e-01 -3.8778984057405402e-02 0.0000000000000000e+00  -6.5918693526750255e-02 0.0000000000000000e+00 0.0000000000000000e+00  -5.2133167104935940e-01 3.6192335175415213e-03 0.0000000000000000e+00  -9.8377803176097278e-01 2.8645286187589922e-02 0.0000000000000000e+00  -4.7888046827203545e-01 0.0000000000000000e+00 0.0000000000000000e+00  -1.0345179024700717e+00 1.0188942352270022e-02 0.0000000000000000e+00  -8.6847923598896060e-01 3.6876866701457164e-02 0.0000000000000000e+00  -2.9132217861288873e-01 0.0000000000000000e+00 0.0000000000000000e+00  -7.0659234083919853e-01 2.9178033792141556e-02 0.0000000000000000e+00  -1.5362764741255872e+00 8.4182920399972355e-02 0.0000000000000000e+00  -2.2352074103642017e+00 4.0129404981631409e-02 0.0000000000000000e+00  -2.1391232907620883e+00 1.7587588000715187e-01 0.0000000000000000e+00  -1.6083579002435446e+00 2.8309851166974492e-01 0.0000000000000000e+00  -1.1523251043303091e+00 1.2028251201124168e-01 0.0000000000000000e+00  -1.9160215833389025e+00 2.6395757038178275e-01 0.0000000000000000e+00  -5.7681264622350401e+00 -1.8787074328310052e+00 0.0000000000000000e+00  -6.1686927331646215e+00 -4.8510902476581075e+00 0.0000000000000000e+00  -4.6350190365462725e+00 -8.2436313379248960e-01 0.0000000000000000e+00  -3.6675626634129532e+00 -4.0807504499678066e-01 0.0000000000000000e+00  -4.3150580710734179e+00 -2.0761259600100996e+00 0.0000000000000000e+00  -3.5052131038594987e+00 -2.4527200312796360e+00 0.0000000000000000e+00  -3.3714445436252944e+00 -1.8594966142521465e+00 0.0000000000000000e+00  -1.5708489082121377e+00 -4.0742670216471717e-02 0.0000000000000000e+00  -1.0125568444643591e+00 -9.9410591328908879e-03 0.0000000000000000e+00  -2.1838329637768110e+00 -1.0152558292935095e-01 0.0000000000000000e+00  -2.8705712270166046e+00 -2.0950892553400341e-01 0.0000000000000000e+00  -1.9990665436366417e+00 -2.0643966279132620e-01 0.0000000000000000e+00  -1.7180065456557707e+00 -2.5125475308521822e-01 0.0000000000000000e+00  -2.2123192945406105e+00 -4.8377152473071544e-01 0.0000000000000000e+00  -1.4037236174520618e+00 -1.1281138943497420e+00 0.0000000000000000e+00  -7.2867132492109621e-01 -9.0034086167060212e-01 0.0000000000000000e+00  -9.2359564096210300e-01 -8.3052362288382731e-01 0.0000000000000000e+00  -1.8370123484308758e+00 -1.0036344116975260e+00 0.0000000000000000e+00  -1.5944052960688768e+00 -6.6252354388232382e-01 0.0000000000000000e+00  -2.1433248175087369e+00 -7.8480975791326413e-01 0.0000000000000000e+00  -2.0328832859226993e+00 -1.3522098820351296e+00 0.0000000000000000e+00  -2.2854160712992315e+00 -1.4454673765998927e+00 0.0000000000000000e+00  -2.6625069504613070e+00 -1.5963516293196205e+00 0.0000000000000000e+00  -3.2342835572651394e+00 -7.1815906192953527e-01 0.0000000000000000e+00  -2.6975490058727267e+00 -8.2189038151765825e-01 0.0000000000000000e+00  -3.1194511306740682e+00 -1.2864541069839841e+00 0.0000000000000000e+00  -9.2178918155411260e-01 -2.2979168618129563e-02 0.0000000000000000e+00  -4.9425836353423258e-01 0.0000000000000000e+00 0.0000000000000000e+00  -1.2367246904032403e+00 -1.0268739919943448e-01 0.0000000000000000e+00  -1.3802829812561612e+00 -2.3329970726257673e-01 0.0000000000000000e+00  -7.7653888318979991e-01 -2.2606214807847577e-02 0.0000000000000000e+00  -3.2523157102096650e-01 0.0000000000000000e+00 0.0000000000000000e+00  -5.9746690546656767e-01 -5.9310615112860262e-03 0.0000000000000000e+00  -8.6570256090172715e-02 1.3849043073817818e-01 0.0000000000000000e+00  0.0000000000000000e+00 2.2711355751257642e-01 0.0000000000000000e+00  5.0994276104553364e-02 0.0000000000000000e+00 0.0000000000000000e+00  -1.9875797606058665e-01 1.7644852779419731e-01 0.0000000000000000e+00  0.0000000000000000e+00 3.2734030714597656e-01 0.0000000000000000e+00  -3.0884569214730950e-01 1.1813308173217936e-01 0.0000000000000000e+00  -2.2988160237684177e-01 7.5824000814098985e-02 0.0000000000000000e+00  -8.7386988384035164e-02 0.0000000000000000e+00 0.0000000000000000e+00  -4.0758629088613124e-01 2.7254781808360915e-02 0.0000000000000000e+00  -6.1717949838872865e-01 -5.5275223782578575e-01 0.0000000000000000e+00  0.0000000000000000e+00 -5.9322087179907845e-01 0.0000000000000000e+00  -1.0521698724455408e+00 -4.8384564233859040e-01 0.0000000000000000e+00  -1.3160177725337416e+00 -3.7484489506988011e-01 0.0000000000000000e+00  -5.1758835312638951e-01 -2.5717187443634654e-01 0.0000000000000000e+00  0.0000000000000000e+00 3.2344103888591220e-02 0.0000000000000000e+00  -4.1553406824580502e-01 -2.9622196110273329e-02 0.0000000000000000e+00  -1.0176749815616528e+00 -1.6024627806137681e-01 0.0000000000000000e+00  -6.5403773794673870e-01 -4.1060207782879825e-02 0.0000000000000000e+00  -7.1214392466007759e-01 -2.5802695884558059e-02 0.0000000000000000e+00  -2.9135691022334340e+00 -3.5511496723408991e+00 0.0000000000000000e+00  -2.7256564629064450e+00 -5.0864324477369864e+00 0.0000000000000000e+00  -2.6188573142360854e+00 -2.6533923007552267e+00 0.0000000000000000e+00  -2.2424991721676650e+00 -2.1299432416193271e+00 0.0000000000000000e+00  -1.7581488098235254e+00 -2.5354992474647844e+00 0.0000000000000000e+00  -1.1311026297507782e+00 -2.2232252412599491e+00 0.0000000000000000e+00  -1.0610700472423018e+00 -1.9277323489589424e+00 0.0000000000000000e+00  -7.3351927074041223e-01 -1.6041265683299097e+00 0.0000000000000000e+00  0.0000000000000000e+00 -1.6527033310960706e+00 0.0000000000000000e+00  -1.3190789704970816e+00 -1.6426293366897275e+00 0.0000000000000000e+00  -1.8137634020200517e+00 -1.8140583222782514e+00 0.0000000000000000e+00  -4.8280166438585781e-01 -1.8063819525955247e+00 0.0000000000000000e+00  0.0000000000000000e+00 -1.9913783749909744e+00 0.0000000000000000e+00  -3.1283076840416052e-01 -1.7775369365545346e+00 0.0000000000000000e+00  -3.3636007633544858e-02 -9.1358630884830472e-01 0.0000000000000000e+00  0.0000000000000000e+00 -5.5156913720844469e-01 0.0000000000000000e+00  3.6228579396949180e-03 -4.7345357127207521e-01 0.0000000000000000e+00  -9.6197115625161825e-02 -1.2973925213586595e+00 0.0000000000000000e+00  0.0000000000000000e+00 -1.4668196905945392e+00 0.0000000000000000e+00  -1.8743257639858038e-01 -1.5961093068399275e+00 0.0000000000000000e+00  -2.1622947711444324e-01 -1.2161545988117288e+00 0.0000000000000000e+00  -3.2856622925602580e-01 -1.2097794320946875e+00 0.0000000000000000e+00  -5.5747935295924156e-01 -1.5242853661590330e+00 0.0000000000000000e+00  -1.2893627766205593e+00 -1.8607334518280907e+00 0.0000000000000000e+00  -6.1542339845938565e-01 -1.6994948511316859e+00 0.0000000000000000e+00  -8.7502209114320362e-01 -1.7517415875763185e+00 0.0000000000000000e+00  -1.2199048499900957e+00 -3.9876876562619277e+00 0.0000000000000000e+00  0.0000000000000000e+00 -6.8308438721907629e+00 0.0000000000000000e+00  -1.0165144839759199e+00 -2.6147077887059353e+00 0.0000000000000000e+00  -7.0056221412202313e-01 -1.8162003736248113e+00 0.0000000000000000e+00  -6.3282486504490409e-01 -3.0044143334477829e+00 0.0000000000000000e+00  0.0000000000000000e+00 -3.1015231733009272e+00 0.0000000000000000e+00  -3.5276276499959353e-01 -2.2377682201055813e+00 0.0000000000000000e+00  -3.3909340052698633e-02 -4.3790634291410252e-01 0.0000000000000000e+00  6.6425584322312350e-03 0.