<?xml version="1.0"?>
<VTKFile type="UnstructuredGrid"  version="0.1"  >
<UnstructuredGrid>
<Piece  NumberOfPoints="4257" NumberOfCells="8192">
<Points>
<DataArray  type="Float32"  NumberOfComponents="3"  format="ascii">0 0 0  1 0 0  1 1 0  0 1 0  -1 1 0  -1 0 0  -1 -1 0  0 -1 0  1 -1 0  1 0 0  0.5 0.5 0  0 0.5 0  0.5 0 0  0.5 1 0  1 0.5 0  -0.5 1 0  -0.5 0.5 0  -1 0.5 0  -0.5 0 0  -0.5 -0.5 0  0 -0.5 0  -0.5 -1 0  -1 -0.5 0  0.5 -1 0  0.5 -0.5 0  1 -0.5 0  0.5 0 0  0.25 0.25 0  0.25 0 0  0 0.25 0  0.5 0.25 0  0.75 0 0  0.75 0.25 0  0.25 0.5 0  0 0.75 0  0.25 0.75 0  0.75 0.5 0  1 0.25 0  0.75 0.75 0  1 0.75 0  0.75 1 0  0.5 0.75 0  0.25 1 0  -0.25 0.5 0  -0.25 0.25 0  -0.25 0.75 0  -0.25 1 0  -0.5 0.75 0  -0.75 0.75 0  -0.75 1 0  -0.5 0.25 0  -0.25 0 0  -0.75 0.5 0  -1 0.75 0  -0.75 0.25 0  -0.75 0 0  -1 0.25 0  -0.25 -0.25 0  0 -0.25 0  -0.5 -0.25 0  -0.75 -0.25 0  -0.25 -0.5 0  0 -0.75 0  -0.25 -0.75 0  -0.75 -0.5 0  -1 -0.25 0  -0.75 -0.75 0  -1 -0.75 0  -0.75 -1 0  -0.5 -0.75 0  -0.25 -1 0  0.25 -0.5 0  0.25 -0.25 0  0.25 -0.75 0  0.25 -1 0  0.5 -0.75 0  0.75 -0.75 0  0.75 -1 0  0.5 -0.25 0  0.25 0 0  0.75 -0.5 0  1 -0.75 0  0.75 -0.25 0  0.75 0 0  1 -0.25 0  0.125 0.125 0  0 0.125 0  0.125 0 0  0.125 0.25 0  0 0.375 0  0.125 0.375 0  0.25 0.125 0  0.375 0 0  0.375 0.125 0  0.75 0.125 0  0.875 0.125 0  0.875 0 0  0.625 0.25 0  0.625 0.375 0  0.5 0.375 0  0.625 0.125 0  0.625 0 0  0.5 0.125 0  0.125 0.75 0  0.125 0.875 0  0 0.875 0  0.25 0.625 0  0.375 0.625 0  0.375 0.5 0  0.125 0.625 0  0 0.625 0  0.125 0.5 0  0.375 0.375 0  0.25 0.375 0  0.375 0.25 0  0.875 0.25 0  1 0.125 0  0.75 0.375 0  0.625 0.5 0  0.875 0.375 0  1 0.375 0  0.875 0.5 0  0.875 0.875 0  0.875 1 0  1 0.875 0  0.75 0.875 0  0.625 1 0  0.625 0.875 0  0.875 0.75 0  1 0.625 0  0.875 0.625 0  0.25 0.875 0  0.125 1 0  0.375 0.75 0  0.5 0.625 0  0.375 0.875 0  0.375 1 0  0.5 0.875 0  0.625 0.625 0  0.625 0.75 0  0.75 0.625 0  -0.125 0.25 0  -0.125 0.125 0  -0.125 0.375 0  -0.125 0.5 0  -0.25 0.375 0  -0.375 0.375 0  -0.375 0.5 0  -0.125 0.875 0  -0.125 1 0  -0.125 0.75 0  -0.125 0.625 0  -0.25 0.875 0  -0.375 1 0  -0.375 0.875 0  -0.75 0.875 0  -0.875 1 0  -0.875 0.875 0  -0.625 0.875 0  -0.625 1 0  -0.5 0.875 0  -0.625 0.75 0  -0.625 0.625 0  -0.5 0.625 0  -0.25 0.625 0  -0.375 0.75 0  -0.375 0.625 0  -0.25 0.125 0  -0.125 0 0  -0.375 0.25 0  -0.5 0.375 0  -0.375 0.125 0  -0.375 0 0  -0.5 0.125 0  -0.875 0.75 0  -1 0.875 0  -0.75 0.625 0  -0.625 0.5 0  -0.875 0.625 0  -1 0.625 0  -0.875 0.5 0  -0.875 0.125 0  -1 0.125 0  -0.875 0 0  -0.875 0.25 0  -1 0.375 0  -0.875 0.375 0  -0.75 0.125 0  -0.625 0 0  -0.625 0.125 0  -0.625 0.375 0  -0.75 0.375 0  -0.625 0.25 0  -0.125 -0.125 0  0 -0.125 0  -0.25 -0.125 0  -0.375 -0.125 0  -0.125 -0.25 0  0 -0.375 0  -0.125 -0.375 0  -0.75 -0.125 0  -0.875 -0.125 0  -0.625 -0.125 0  -0.5 -0.125 0  -0.625 -0.25 0  -0.625 -0.375 0  -0.5 -0.375 0  -0.125 -0.75 0  -0.125 -0.875 0  0 -0.875 0  -0.25 -0.625 0  -0.375 -0.625 0  -0.375 -0.5 0  -0.125 -0.625 0  0 -0.625 0  -0.125 -0.5 0  -0.375 -0.25 0  -0.375 -0.375 0  -0.25 -0.375 0  -0.875 -0.25 0  -1 -0.125 0  -0.75 -0.375 0  -0.625 -0.5 0  -0.875 -0.375 0  -1 -0.375 0  -0.875 -0.5 0  -0.875 -0.875 0  -0.875 -1 0  -1 -0.875 0  -0.75 -0.875 0  -0.625 -1 0  -0.625 -0.875 0  -0.875 -0.75 0  -1 -0.625 0  -0.875 -0.625 0  -0.25 -0.875 0  -0.125 -1 0  -0.375 -0.75 0  -0.5 -0.625 0  -0.375 -0.875 0  -0.375 -1 0  -0.5 -0.875 0  -0.625 -0.625 0  -0.625 -0.75 0  -0.75 -0.625 0  0.125 -0.25 0  0.125 -0.125 0  0.125 -0.375 0  0.125 -0.5 0  0.25 -0.375 0  0.375 -0.375 0  0.375 -0.5 0  0.125 -0.875 0  0.125 -1 0  0.125 -0.75 0  0.125 -0.625 0  0.25 -0.875 0  0.375 -1 0  0.375 -0.875 0  0.75 -0.875 0  0.875 -1 0  0.875 -0.875 0  0.625 -0.875 0  0.625 -1 0  0.5 -0.875 0  0.625 -0.75 0  0.625 -0.625 0  0.5 -0.625 0  0.25 -0.625 0  0.375 -0.75 0  0.375 -0.625 0  0.25 -0.125 0  0.125 0 0  0.375 -0.25 0  0.5 -0.375 0  0.375 -0.125 0  0.375 0 0  0.5 -0.125 0  0.875 -0.75 0  1 -0.875 0  0.75 -0.625 0  0.625 -0.5 0  0.875 -0.625 0  1 -0.625 0  0.875 -0.5 0  0.875 -0.125 0  1 -0.125 0  0.875 0 0  0.875 -0.25 0  1 -0.375 0  0.875 -0.375 0  0.75 -0.125 0  0.625 0 0  0.625 -0.125 0  0.625 -0.375 0  0.75 -0.375 0  0.625 -0.25 0  0.0625 0.0625 0  0.0625 0 0  0 0.0625 0  0.125 0.0625 0  0.1875 0 0  0.1875 0.0625 0  0.0625 0.125 0  0 0.1875 0  0.0625 0.1875 0  0.0625 0.375 0  0.0625 0.4375 0  0 0.4375 0  0.125 0.3125 0  0.1875 0.3125 0  0.1875 0.25 0  0.0625 0.3125 0  0 0.3125 0  0.0625 0.25 0  0.375 0.0625 0  0.4375 0.0625 0  0.4375 0 0  0.3125 0.125 0  0.3125 0.1875 0  0.25 0.1875 0  0.3125 0.0625 0  0.3125 0 0  0.25 0.0625 0  0.1875 0.1875 0  0.1875 0.125 0  0.125 0.1875 0  0.875 0.0625 0  0.9375 0 0  0.9375 0.0625 0  0.8125 0.0625 0  0.8125 0 0  0.75 0.0625 0  0.8125 0.125 0  0.8125 0.1875 0  0.75 0.1875 0  0.5625 0.375 0  0.5 0.4375 0  0.5625 0.4375 0  0.5625 0.3125 0  0.5 0.3125 0  0.5625 0.25 0  0.625 0.3125 0  0.6875 0.3125 0  0.6875 0.25 0  0.5625 0.0625 0  0.5 0.0625 0  0.5625 0 0  0.5625 0.125 0  0.5 0.1875 0  0.5625 0.1875 0  0.625 0.0625 0  0.6875 0 0  0.6875 0.0625 0  0.625 0.1875 0  0.6875 0.125 0  0.6875 0.1875 0  0.0625 0.875 0  0 0.9375 0  0.0625 0.9375 0  0.0625 0.8125 0  0 0.8125 0  0.0625 0.75 0  0.125 0.8125 0  0.1875 0.8125 0  0.1875 0.75 0  0.375 0.5625 0  0.4375 0.5 0  0.4375 0.5625 0  0.3125 0.5625 0  0.3125 0.5 0  0.25 0.5625 0  0.3125 0.625 0  0.3125 0.6875 0  0.25 0.6875 0  0.0625 0.5625 0  0.0625 0.5 0  0 0.5625 0  0.125 0.5625 0  0.1875 0.5 0  0.1875 0.5625 0  0.0625 0.625 0  0 0.6875 0  0.0625 0.6875 0  0.1875 0.625 0  0.125 0.6875 0  0.1875 0.6875 0  0.4375 0.4375 0  0.4375 0.375 0  0.4375 0.3125 0  0.375 0.4375 0  0.3125 0.4375 0  0.125 0.4375 0  0.1875 0.375 0  0.25 0.3125 0  0.1875 0.4375 0  0.25 0.4375 0  0.4375 0.125 0  0.375 0.1875 0  0.3125 0.25 0  0.4375 0.1875 0  0.4375 0.25 0  0.3125 0.3125 0  0.375 0.3125 0  0.3125 0.375 0  0.9375 0.125 0  1 0.0625 0  0.875 0.1875 0  0.8125 0.25 0  0.9375 0.1875 0  1 0.1875 0  0.9375 0.25 0  0.625 0.4375 0  0.5625 0.5 0  0.6875 0.375 0  0.75 0.3125 0  0.6875 0.4375 0  0.6875 0.5 0  0.75 0.4375 0  0.9375 0.4375 0  0.9375 0.5 0  1 0.4375 0  0.875 0.4375 0  0.8125 0.5 0  0.8125 0.4375 0  0.9375 0.375 0  1 0.3125 0  0.9375 0.3125 0  0.8125 0.3125 0  0.8125 0.375 0  0.875 0.3125 0  0.9375 0.9375 0  1 0.9375 0  0.9375 1 0  0.9375 0.875 0  1 0.8125 0  0.9375 0.8125 0  0.875 0.9375 0  0.8125 1 0  0.8125 0.9375 0  0.625 0.9375 0  0.5625 0.9375 0  0.5625 1 0  0.6875 0.875 0  0.6875 0.8125 0  0.75 0.8125 0  0.6875 0.9375 0  0.6875 1 0  0.75 0.9375 0  0.9375 0.625 0  0.9375 0.5625 0  1 0.5625 0  0.875 0.6875 0  0.8125 0.6875 0  0.8125 0.75 0  0.9375 0.6875 0  1 0.6875 0  0.9375 0.75 0  0.8125 0.8125 0  0.875 0.8125 0  0.8125 0.875 0  0.125 0.9375 0  0.0625 1 0  0.1875 0.875 0  0.25 0.8125 0  0.1875 0.9375 0  0.1875 1 0  0.25 0.9375 0  0.4375 0.625 0  0.5 0.5625 0  0.375 0.6875 0  0.3125 0.75 0  0.4375 0.6875 0  0.5 0.6875 0  0.4375 0.75 0  0.4375 0.9375 0  0.5 0.9375 0  0.4375 1 0  0.4375 0.875 0  0.5 0.8125 0  0.4375 0.8125 0  0.375 0.9375 0  0.3125 1 0  0.3125 0.9375 0  0.3125 0.8125 0  0.375 0.8125 0  0.3125 0.875 0  0.5625 0.5625 0  0.625 0.5625 0  0.6875 0.5625 0  0.5625 0.625 0  0.5625 0.6875 0  0.5625 0.875 0  0.625 0.8125 0  0.6875 0.75 0  0.5625 0.8125 0  0.5625 0.75 0  0.875 0.5625 0  0.8125 0.5625 0  0.75 0.5625 0  0.8125 0.625 0  0.75 0.6875 0  0.6875 0.625 0  0.6875 0.6875 0  0.625 0.6875 0  -0.0625 0.125 0  -0.0625 0.0625 0  -0.0625 0.1875 0  -0.0625 0.25 0  -0.125 0.1875 0  -0.1875 0.1875 0  -0.1875 0.25 0  -0.0625 0.4375 0  -0.0625 0.5 0  -0.0625 0.375 0  -0.0625 0.3125 0  -0.125 0.4375 0  -0.1875 0.5 0  -0.1875 0.4375 0  -0.375 0.4375 0  -0.4375 0.5 0  -0.4375 0.4375 0  -0.3125 0.4375 0  -0.3125 0.5 0  -0.25 0.4375 0  -0.3125 0.375 0  -0.3125 0.3125 0  -0.25 0.3125 0  -0.125 0.3125 0  -0.1875 0.375 0  -0.1875 0.3125 0  -0.0625 0.9375 0  -0.0625 1 0  -0.0625 0.875 0  -0.0625 0.8125 0  -0.125 0.9375 0  -0.1875 1 0  -0.1875 0.9375 0  -0.0625 0.625 0  -0.0625 0.5625 0  -0.0625 0.6875 0  -0.0625 0.75 0  -0.125 0.6875 0  -0.1875 0.6875 0  -0.1875 0.75 0  -0.375 0.9375 0  -0.4375 0.9375 0  -0.4375 1 0  -0.3125 0.875 0  -0.3125 0.8125 0  -0.25 0.8125 0  -0.3125 0.9375 0  -0.3125 1 0  -0.25 0.9375 0  -0.125 0.8125 0  -0.1875 0.8125 0  -0.1875 0.875 0  -0.875 0.9375 0  -0.9375 0.9375 0  -0.9375 1 0  -0.8125 0.875 0  -0.8125 0.8125 0  -0.75 0.8125 0  -0.8125 0.9375 0  -0.8125 1 0  -0.75 0.9375 0  -0.5625 0.9375 0  -0.5 0.9375 0  -0.5625 1 0  -0.5625 0.875 0  -0.5 0.8125 0  -0.5625 0.8125 0  -0.625 0.9375 0  -0.6875 1 0  -0.6875 0.9375 0  -0.5625 0.625 0  -0.5 0.5625 0  -0.5625 0.5625 0  -0.5625 0.6875 0  -0.5 0.6875 0  -0.5625 0.75 0  -0.625 0.6875 0  -0.6875 0.6875 0  -0.6875 0.75 0  -0.625 0.8125 0  -0.6875 0.8125 0  -0.6875 0.875 0  -0.125 0.5625 0  -0.1875 0.5625 0  -0.25 0.5625 0  -0.1875 0.625 0  -0.25 0.6875 0  -0.4375 0.875 0  -0.375 0.8125 0  -0.3125 0.75 0  -0.4375 0.8125 0  -0.4375 0.75 0  -0.4375 0.5625 0  -0.375 0.5625 0  -0.3125 0.5625 0  -0.4375 0.625 0  -0.4375 0.6875 0  -0.3125 0.625 0  -0.3125 0.6875 0  -0.375 0.6875 0  -0.125 0.0625 0  -0.0625 0 0  -0.1875 0.125 0  -0.25 0.1875 0  -0.1875 0.0625 0  -0.1875 0 0  -0.25 0.0625 0  -0.4375 0.375 0  -0.5 0.4375 0  -0.375 0.3125 0  -0.3125 0.25 0  -0.4375 0.3125 0  -0.5 0.3125 0  -0.4375 0.25 0  -0.4375 0.0625 0  -0.5 0.0625 0  -0.4375 0 0  -0.4375 0.125 0  -0.5 0.1875 0  -0.4375 0.1875 0  -0.375 0.0625 0  -0.3125 0 0  -0.3125 0.0625 0  -0.3125 0.1875 0  -0.375 0.1875 0  -0.3125 0.125 0  -0.9375 0.875 0  -1 0.9375 0  -0.875 0.8125 0  -0.8125 0.75 0  -0.9375 0.8125 0  -1 0.8125 0  -0.9375 0.75 0  -0.625 0.5625 0  -0.5625 0.5 0  -0.6875 0.625 0  -0.75 0.6875 0  -0.6875 0.5625 0  -0.6875 0.5 0  -0.75 0.5625 0  -0.9375 0.5625 0  -0.9375 0.5 0  -1 0.5625 0  -0.875 0.5625 0  -0.8125 0.5 0  -0.8125 0.5625 0  -0.9375 0.625 0  -1 0.6875 0  -0.9375 0.6875 0  -0.8125 0.6875 0  -0.8125 0.625 0  -0.875 0.6875 0  -0.9375 0.0625 0  -0.9375 0 0  -1 0.0625 0  -0.875 0.0625 0  
[...]
<PointData  Vectors="u"> 
<DataArray  type="Float32"  Name="u"  NumberOfComponents="3" format="ascii">-8.541167e+00 -1.986212e+00 0.000000e+00  0.000000e+00 0.000000e+00 0.000000e+00  0.000000e+00 0.000000e+00 0.000000e+00  0.000000e+00 -1.027101e+00 0.000000e+00  0.000000e+00 0.000000e+00 0.000000e+00  1.456895e+00 0.000000e+00 0.000000e+00  0.000000e+00 0.000000e+00 0.000000e+00  0.000000e+00 1.031221e+00 0.000000e+00  0.000000e+00 0.000000e+00 0.000000e+00  0.000000e+00 0.000000e+00 0.000000e+00  -5.102214e-01 4.675258e-01 0.000000e+00  -7.764401e-01 3.583168e-01 0.000000e+00  0.000000e+00 6.744164e-01 0.000000e+00  0.000000e+00 -5.253770e-01 0.000000e+00  -4.262636e-01 0.000000e+00 0.000000e+00  0.000000e+00 -1.126423e+00 0.000000e+00  -1.473204e-01 -2.558453e-01 0.000000e+00  1.168273e+00 0.000000e+00 0.000000e+00  -5.021993e-01 9.819326e-04 0.000000e+00  -1.475043e-01 2.575277e-01 0.000000e+00  -7.765025e-01 -3.551616e-01 0.000000e+00  0.000000e+00 1.130949e+00 0.000000e+00  1.172206e+00 0.000000e+00 0.000000e+00  0.000000e+00 5.246462e-01 0.000000e+00  -5.103723e-01 -4.649335e-01 0.000000e+00  -4.264590e-01 0.000000e+00 0.000000e+00  0.000000e+00 -1.090667e+00 0.000000e+00  -7.074801e-01 1.322040e+00 0.000000e+00  0.000000e+00 1.218332e+00 0.000000e+00  -1.394428e+00 1.155498e+00 0.000000e+00  -3.934515e-01 8.981569e-01 0.000000e+00  0.000000e+00 3.214336e-01 0.000000e+00  -2.983855e-01 4.473232e-01 0.000000e+00  -6.557478e-01 5.468471e-01 0.000000e+00  -3.683362e-01 -3.318124e-01 0.000000e+00  -3.853802e-01 -1.288323e-01 0.000000e+00  -4.392072e-01 2.573643e-01 0.000000e+00  -2.787095e-01 0.000000e+00 0.000000e+00  -3.466098e-01 9.194732e-03 0.000000e+00  -3.508341e-01 0.000000e+00 0.000000e+00  0.000000e+00 -2.684991e-01 0.000000e+00  -3.621529e-01 -1.977747e-02 0.000000e+00  0.000000e+00 -7.852191e-01 0.000000e+00  -6.108133e-01 -1.178455e-02 0.000000e+00  -1.154902e+00 3.158440e-01 0.000000e+00  -2.449542e-01 -5.518759e-01 0.000000e+00  0.000000e+00 -1.177879e+00 0.000000e+00  2.903539e-04 -6.421265e-01 0.000000e+00  3.355627e-01 -4.819443e-01 0.000000e+00  0.000000e+00 -7.627784e-01 0.000000e+00  -3.747136e-01 -3.134361e-02 0.000000e+00  -1.625154e+00 2.115816e-03 0.000000e+00  4.703817e-01 -2.559584e-01 0.000000e+00  7.273377e-01 0.000000e+00 0.000000e+00  4.845828e-01 -9.903750e-02 0.000000e+00  4.728824e-01 3.594558e-04 0.000000e+00  1.390730e+00 0.000000e+00 0.000000e+00  -1.155129e+00 -3.131770e-01 0.000000e+00  -1.393554e+00 -1.151796e+00 0.000000e+00  -3.748326e-01 3.315117e-02 0.000000e+00  4.845156e-01 9.972311e-02 0.000000e+00  -6.109660e-01 1.432780e-02 0.000000e+00  -3.685643e-01 3.346715e-01 0.000000e+00  -2.452336e-01 5.543163e-01 0.000000e+00  4.702232e-01 2.565919e-01 0.000000e+00  1.392963e+00 0.000000e+00 0.000000e+00  3.352308e-01 4.825518e-01 0.000000e+00  7.321763e-01 0.000000e+00 0.000000e+00  0.000000e+00 7.661993e-01 0.000000e+00  -3.850381e-05 6.437831e-01 0.000000e+00  0.000000e+00 1.182808e+00 0.000000e+00  -6.558791e-01 -5.436297e-01 0.000000e+00  -7.076045e-01 -1.317932e+00 0.000000e+00  -3.855833e-01 1.316347e-01 0.000000e+00  0.000000e+00 7.872124e-01 0.000000e+00  -3.623371e-01 2.202370e-02 0.000000e+00  -3.467961e-01 -7.864558e-03 0.000000e+00  0.000000e+00 2.652924e-01 0.000000e+00  -3.935120e-01 -8.948906e-01 0.000000e+00  0.000000e+00 -1.948304e+00 0.000000e+00  -4.393484e-01 -2.558192e-01 0.000000e+00  -3.522384e-01 0.000000e+00 0.000000e+00  -2.985167e-01 -4.453619e-01 0.000000e+00  0.000000e+00 -5.159928e-01 0.000000e+00  -2.777650e-01 0.000000e+00 0.000000e+00  -1.024507e+00 2.173909e+00 0.000000e+00  -2.171946e+00 1.813722e+00 0.000000e+00  0.000000e+00 1.913040e+00 0.000000e+00  -1.043723e+00 1.398240e+00 0.000000e+00  -1.032030e+00 7.253212e-01 0.000000e+00  -8.997979e-01 8.932286e-01 0.000000e+00  -4.963981e-01 1.744230e+00 0.000000e+00  0.000000e+00 8.974169e-01 0.000000e+00  -3.057321e-01 1.361447e+00 0.000000e+00  -1.605935e-01 5.030632e-01 0.000000e+00  -1.504706e-01 2.501224e-01 0.000000e+00  0.000000e+00 1.614031e-01 0.000000e+00  -3.317799e-01 6.718275e-01 0.000000e+00  -4.294545e-01 5.355208e-01 0.000000e+00  -4.890817e-01 6.961931e-01 0.000000e+00  -1.816609e-01 7.647214e-01 0.000000e+00  0.000000e+00 4.894155e-01 0.000000e+00  -2.226470e-01 1.044866e+00 0.000000e+00  -3.864196e-01 -2.207352e-01 0.000000e+00  -1.987623e-01 -5.658338e-01 0.000000e+00  -1.824278e-01 -6.772078e-01 0.000000e+00  -5.371934e-01 2.033009e-01 0.000000e+00  -4.997888e-01 2.339484e-01 0.000000e+00  -5.746409e-01 5.320529e-01 0.000000e+00  -5.646289e-01 1.280446e-01 0.000000e+00  -5.629060e-01 1.117875e-02 0.000000e+00  -7.354892e-01 4.911167e-01 0.000000e+00  -5.849264e-01 8.320265e-01 0.000000e+00  -7.263375e-01 9.146672e-01 0.000000e+00  -5.051892e-01 1.122871e+00 0.000000e+00  -2.822902e-01 2.238262e-01 0.000000e+00  -1.482362e-01 0.000000e+00 0.000000e+00  -3.951800e-01 3.627033e-01 0.000000e+00  -4.658791e-01 3.718355e-01 0.000000e+00  -3.786539e-01 1.833131e-01 0.000000e+00  -3.756682e-01 0.000000e+00 0.000000e+00  -4.268756e-01 1.317983e-01 0.000000e+00  -2.079003e-01 -6.279467e-02 0.000000e+00  0.000000e+00 -1.381139e-01 0.000000e+00  -2.116971e-01 0.000000e+00 0.000000e+00  -2.055125e-01 -1.261566e-01 0.000000e+00  0.000000e+00 -3.968464e-01 0.000000e+00  -2.050619e-01 -1.940783e-01 0.000000e+00  -3.463769e-01 6.859477e-03 0.000000e+00  -4.204836e-01 0.000000e+00 0.000000e+00  -4.180828e-01 7.223075e-02 0.000000e+00  -2.056378e-01 -4.569775e-01 0.000000e+00  0.000000e+00 -9.116962e-01 0.000000e+00  -3.747664e-01 -6.203145e-02 0.000000e+00  -4.653303e-01 2.268683e-01 0.000000e+00  -2.069232e-01 -3.576452e-01 0.000000e+00  0.000000e+00 -6.551515e-01 0.000000e+00  -2.059638e-01 -2.703019e-01 0.000000e+00  -4.396306e-01 1.919029e-01 0.000000e+00  -3.520799e-01 2.140519e-03 0.000000e+00  -4.240492e-01 1.379927e-01 0.000000e+00  -1.420375e+00 6.863001e-01 0.000000e+00  -2.027975e+00 6.989410e-01 0.000000e+00  -1.022953e+00 4.573357e-01 0.000000e+00  -7.391480e-01 1.746596e-01 0.000000e+00  -8.570565e-01 1.965492e-01 0.000000e+00  -5.869019e-01 2.024040e-03 0.000000e+00  -4.061558e-01 -1.617296e-01 0.000000e+00  -1.532802e-01 -7.793635e-01 0.000000e+00  0.000000e+00 -1.120391e+00 0.000000e+00  -3.226215e-01 -4.485011e-01 0.000000e+00  -5.139659e-01 -1.297553e-01 0.000000e+00  -1.094738e-01 -8.571323e-01 0.000000e+00  0.000000e+00 -1.184734e+00 0.000000e+00  -5.097498e-02 -8.941682e-01 0.000000e+00  1.971093e-01 -6.168881e-01 0.000000e+00  0.000000e+00 -4.356636e-01 0.000000e+00  2.979353e-01 -3.575931e-01 0.000000e+00  1.042276e-01 -7.863080e-01 0.000000e+00  0.000000e+00 -9.896629e-01 0.000000e+00  2.089684e-02 -8.750258e-01 0.000000e+00  1.589635e-01 -5.986692e-01 0.000000e+00  1.709779e-01 -4.311174e-01 0.000000e+00  -5.765699e-02 -4.334632e-01 0.000000e+00  -4.099365e-01 -2.673370e-01 0.000000e+00  -1.359986e-01 -6.221231e-01 0.000000e+00  -2.545993e-01 -3.749615e-01 0.000000e+00  -1.467626e+00 2.648723e-01 0.000000e+00  -2.542531e+00 9.933177e-03 0.000000e+00  -7.819704e-01 9.260792e-02 0.000000e+00  -2.589050e-01 -1.185769e-01 0.000000e+00  -9.498961e-01 8.736860e-02 0.000000e+00  -1.019997e+00 1.373836e-03 0.000000e+00  -4.664948e-01 3.152867e-03 0.000000e+00  5.266562e-01 -2.845474e-01 0.000000e+00  4.028483e-01 0.000000e+00 0.000000e+00  4.236284e-01 -3.609778e-01 0.000000e+00  1.484512e-01 -2.877236e-01 0.000000e+00  6.950441e-01 -2.185611e-01 0.000000e+00  9.795549e-01 0.000000e+00 0.000000e+00  8.121985e-01 -1.603061e-01 0.000000e+00  9.546089e-01 -3.210304e-02 0.000000e+00  1.440515e+00 0.000000e+00 0.000000e+00  9.612058e-01 6.894732e-05 0.000000e+00  9.323827e-01 -6.794020e-02 0.000000e+00  1.302454e+00 0.000000e+00 0.000000e+00  8.879590e-01 -1.101950e-01 0.000000e+00  4.767570e-01 -4.482076e-02 0.000000e+00  -1.186878e-02 6.598235e-04 0.000000e+00  5.013669e-03 -3.533859e-02 0.000000e+00  1.026148e-01 -1.729296e-01 0.000000e+00  4.866037e-01 -1.685578e-01 0.000000e+00  4.869291e-02 -8.957729e-02 0.000000e+00  -2.029335e+00 -6.976034e-01 0.000000e+00  -2.153171e+00 -1.806275e+00 0.000000e+00  -1.468224e+00 -2.618077e-01 0.000000e+00  -9.500869e-01 -8.482276e-02 0.000000e+00  -1.420345e+00 -6.834076e-01 0.000000e+00  -1.031885e+00 -7.219000e-01 0.000000e+00  -1.022956e+00 -4.543453e-01 0.000000e+00  4.767234e-01 4.553001e-02 0.000000e+00  9.545857e-01 3.223594e-02 0.000000e+00  4.965035e-03 3.663719e-02 0.000000e+00  -4.665778e-01 -1.245070e-03 0.000000e+00  4.860543e-02 9.082982e-02 0.000000e+00  1.024892e-01 1.741368e-01 0.000000e+00  -2.590473e-01 1.203082e-01 0.000000e+00  -3.228728e-01 4.512032e-01 0.000000e+00  -1.535847e-01 7.820535e-01 0.000000e+00  -1.827000e-01 6.800316e-01 0.000000e+00  -4.101501e-01 2.698133e-01 0.000000e+00  -2.548352e-01 3.770622e-01 0.000000e+00  -4.063344e-01 1.638723e-01 0.000000e+00  -5.141512e-01 1.325266e-01 0.000000e+00  -5.630701e-01 -8.210318e-03 0.000000e+00  -7.392506e-01 -1.717762e-01 0.000000e+00  -7.821455e-01 -9.029377e-02 0.000000e+00  -5.870535e-01 1.826518e-04 0.000000e+00  -8.571804e-01 -1.939353e-01 0.000000e+00  9.323340e-01 6.805963e-02 0.000000e+00  1.441668e+00 0.000000e+00 0.000000e+00  4.864975e-01 1.692158e-01 0.000000e+00  1.482748e-01 2.888973e-01 0.000000e+00  8.878773e-01 1.102956e-01 0.000000e+00  1.305628e+00 0.000000e+00 0.000000e+00  8.120701e-01 1.603852e-01 0.000000e+00  2.975078e-01 3.575765e-01 0.000000e+00  0.000000e+00 4.383225e-01 0.000000e+00  4.078809e-01 0.000000e+00 0.000000e+00  1.966360e-01 6.175073e-01 0.000000e+00  0.000000e+00 9.936982e-01 0.000000e+00  1.037701e-01 7.875017e-01 0.000000e+00  5.263672e-01 2.845769e-01 0.000000e+00  9.840427e-01 0.000000e+00 0.000000e+00  6.948487e-01 2.186173e-01 0.000000e+00  -1.098152e-01 8.595829e-01 0.000000e+00  0.000000e+00 1.125092e+00 0.000000e+00  -1.363053e-01 6.242110e-01 0.000000e+00  -5.790454e-02 4.351193e-01 0.000000e+00  -5.135663e-02 8.962839e-01 0.000000e+00  0.000000e+00 1.189580e+00 0.000000e+00  2.047462e-02 8.767200e-01 0.000000e+00  1.707308e-01 4.322730e-01 0.000000e+00  1.586230e-01 5.998274e-01 0.000000e+00  4.233971e-01 3.615933e-01 0.000000e+00  -1.043701e+00 -1.393656e+00 0.000000e+00  -1.025144e+00 -2.167991e+00 0.000000e+00  -8.997697e-01 -8.895076e-01 0.000000e+00  -7.355749e-01 -4.878263e-01 0.000000e+00  -7.264372e-01 -9.110585e-01 0.000000e+00  -5.850421e-01 -8.287211e-01 0.000000e+00  -5.747904e-01 -5.290837e-01 0.000000e+00  -1.990068e-01 5.686760e-01 0.000000e+00  0.000000e+00 9.148880e-01 0.000000e+00  -3.866324e-01 2.236312e-01 0.000000e+00  -5.647919e-01 -1.250064e-01 0.000000e+00  -2.058576e-01 4.597162e-01 0.000000e+00  0.000000e+00 6.557953e-01 0.000000e+00  -2.071198e-01 3.601600e-01 0.000000e+00  -2.056928e-01 1.273957e-01 0.000000e+00  0.000000e+00 1.337768e-01 0.000000e+00  -2.081888e-01 6.349610e-02 0.000000e+00  -2.052267e-01 1.958265e-01 0.000000e+00  0.000000e+00 3.948150e-01 0.000000e+00  -2.061401e-01 2.724816e-01 0.000000e+00  -3.522591e-01 -3.216009e-04 0.000000e+00  -4.398001e-01 -1.899648e-01 0.000000e+00  -4.655046e-01 -2.244861e-01 0.000000e+00  -5.373660e-01 -2.003444e-01 0.000000e+00  -3.749601e-01 6.461255e-02 0.000000e+00  -4.999658e-01 -2.312184e-01 0.000000e+00  -4.964312e-01 -1.739913e+00 0.000000e+00  0.000000e+00 -2.934343e+00 0.000000e+00  -5.052562e-01 -1.119133e+00 0.000000e+00  -4.891964e-01 -6.933088e-01 0.000000e+00  -3.057136e-01 -1.357378e+00 0.000000e+00  0.000000e+00 -1.448309e+00 0.000000e+00  -2.226319e-01 -1.041285e+00 0.000000e+00  -3.465830e-01 -6.023987e-03 0.000000e+00  -2.136984e-01 0.000000e+00 0.000000e+00  -4.242113e-01 -1.365670e-01 0.000000e+00  -4.660277e-01 -3.697246e-01 0.000000e+00  -4.182217e-01 -7.135031e-02 0.000000e+00  -4.213164e-01 0.000000e+00 0.000000e+00  -4.269876e-01 -1.308795e-01 0.000000e+00  -1.507813e-01 -2.486868e-01 0.000000e+00  -1.472666e-01 0.000000e+00 0.000000e+00  0.000000e+00 -2.534936e-01 0.000000e+00  -2.824943e-01 -2.227030e-01 0.000000e+00  -3.752227e-01 0.000000e+00 0.000000e+00  -3.787836e-01 -1.823274e-01 0.000000e+00  -1.606844e-01 -5.008217e-01 0.000000e+00  0.000000e+00 -7.903202e-01 0.000000e+00  -1.816761e-01 -7.617676e-01 0.000000e+00  -4.295759e-01 -5.331702e-01 0.000000e+00  -3.953132e-01 -3.609889e-01 0.000000e+00  -3.318618e-01 -6.691579e-01 0.000000e+00  -1.543442e+00 3.226744e+00 0.000000e+00  0.000000e+00 2.906356e+00 0.000000e+00  -3.582100e+00 2.405647e+00 0.000000e+00  -7.185245e-01 2.668832e+00 0.000000e+00  0.000000e+00 1.474490e+00 0.000000e+00  -4.156878e-01 2.215944e+00 0.000000e+00  -1.575837e+00 2.230140e+00 0.000000e+00  -1.679287e+00 1.432604e+00 0.000000e+00  -1.402148e+00 1.680878e+00 0.000000e+00  -9.781344e-01 8.274727e-01 0.000000e+00  -8.671987e-01 6.236790e-01 0.000000e+00  -8.965690e-01 5.376824e-01 0.000000e+00  -9.770024e-01 1.125861e+00 0.000000e+00  -8.486299e-01 1.141057e+00 0.000000e+00  -8.587319e-01 1.386873e+00 0.000000e+00  -1.100371e+00 1.054897e+00 0.000000e+00  -1.192065e+00 9.274588e-01 0.000000e+00  -1.239606e+00 1.325242e+00 0.000000e+00  -1.615382e-01 1.420208e+00 0.000000e+00  -1.337616e-01 1.238490e+00 0.000000e+00  0.000000e+00 7.789566e-01 0.000000e+00  -3.797878e-01 1.542474e+00 0.000000e+00  -5.087798e-01 1.396103e+00 0.000000e+00  -6.352867e-01 1.537985e+00 0.000000e+00  -2.050352e-01 1.630336e+00 0.000000e+00  0.000000e+00 1.038360e+00 0.000000e+00  -2.782879e-01 1.885697e+00 0.000000e+00  -8.196685e-01 1.664105e+00 0.000000e+00  -6.899334e-01 1.965108e+00 0.000000e+00  -1.079876e+00 1.736293e+00 0.000000e+00  -7.643463e-02 2.552675e-01 0.000000e+00  0.000000e+00 8.310448e-02 0.000000e+00  -7.499748e-02 1.281130e-01 0.000000e+00  -7.861593e-02 3.833147e-01 0.000000e+00  0.000000e+00 2.407594e-01 0.000000e+00  -8.185378e-02 5.131256e-01 0.000000e+00  -1.544891e-01 3.759220e-01 0.000000e+00  -2.252830e-01 3.587596e-01 0.000000e+00  -2.336228e-01 4.793351e-01 0.000000e+00  -4.554832e-01 6.179248e-01 0.000000e+00  -5.084703e-01 5.840020e-01 0.000000e+00  -4.788871e-01 5.228241e-01 0.000000e+00  -4.151430e-01 7.060706e-01 0.000000e+00  -4.509716e-01 8.019399e-01 0.000000e+00  -3.580604e-01 7.847906e-01 0.000000e+00  -3.879630e-01 6.080033e-01 0.000000e+00  -3.676331e-01 5.085335e-01 0.000000e+00  -3.124086e-01 5.593686e-01 0.000000e+00  -1.021894e-01 9.244921e-01 0.000000e+00  -1.151212e-01 1.075288e+00 0.000000e+00  0.000000e+00 5.789023e-01 0.000000e+00  -1.987594e-01 9.016158e-01 0.000000e+00  -3.167467e-01 9.807778e-01 0.000000e+00  -2.852253e-01 8.510983e-01 0.000000e+00  -9.303464e-02 7.821575e-01 0.000000e+00  0.000000e+00 4.040236e-01 0.000000e+00  -8.649920e-02 6.456430e-01 0.000000e+00  -2.622833e-01 7.248397e-01 0.000000e+00  -1.693662e-01 6.323251e-01 0.000000e+00  -2.456020e-01 6.011614e-01 0.000000e+00  -1.920129e-01 -6.218368e-01 0.000000e+00  -9.095715e-02 -8.517305e-01 0.000000e+00  -9.659222e-02 -7.963459e-01 0.000000e+00  -2.864723e-01 -4.480277e-01 0.000000e+00  -2.747037e-01 -5.039808e-01 0.000000e+00  -3.803679e-01 -2.745548e-01 0.000000e+00  -2.938917e-01 -3.933641e-01 0.000000e+00  -2.977368e-01 -3.413864e-01 0.000000e+00  -3.876749e-01 -1.718365e-01 0.000000e+00  -5.441679e-01 3.826487e-01 0.000000e+00  -5.399093e-01 5.047006e-01 0.000000e+00  -5.182634e-01 3.700190e-01 0.000000e+00  -5.723314e-01 3.842418e-01 0.000000e+00  -6.137752e-01 5.470357e-01 0.000000e+00  -6.012070e-01 3.729872e-01 0.000000e+00  -5.187443e-01 2.239118e-01 0.000000e+00  -4.545400e-01 6.530748e-02 0.000000e+00  -4.649922e-01 3.637957e-02 0.000000e+00  -6.647309e-01 2.514746e-01 0.000000e+00  -7.636209e-01 4.335545e-01 0.000000e+00  -6.663167e-01 1.835688e-01 0.000000e+00  -6.508504e-01 3.067391e-01 0.000000e+00  -6.977338e-01 5.288231e-01 0.000000e+00  -6.284353e-01 3.473984e-01 0.000000e+00  -5.686921e-01 7.405620e-02 0.000000e+00  -4.640638e-01 -1.602998e-01 0.000000e+00  -4.742137e-01 -1.008280e-01 0.000000e+00  -5.532642e-01 1.713806e-01 0.000000e+00  -4.765780e-01 -4.727185e-02 0.000000e+00  -4.729004e-01 -1.234298e-03 0.000000e+00  -5.450451e-01 6.379343e-01 0.000000e+00  -5.317278e-01 7.684897e-01 0.000000e+00  -4.977617e-01 8.941691e-01 0.000000e+00  -5.891570e-01 6.820641e-01 0.000000e+00  -6.407626e-01 7.130282e-01 0.000000e+00  -8.186239e-01 6.847325e-01 0.000000e+00  -8.119254e-01 9.206984e-01 0.000000e+00  -7.326447e-01 1.112879e+00 0.000000e+00  -7.598013e-01 7.185431e-01 0.000000e+00  -6.986663e-01 7.266896e-01 0.000000e+00  -2.565160e-01 1.197008e+00 0.000000e+00  -4.215339e-01 1.253440e+00 0.000000e+00  -5.916593e-01 1.229014e+00 0.000000e+00  -3.603671e-01 1.114724e+00 0.000000e+00  -4.410540e-01 1.011370e+00 0.000000e+00  -6.358062e-01 1.055544e+00 0.000000e+00  -5.583417e-01 9.801882e-01 0.000000e+00  -6.498116e-01 8.826781e-01 0.000000e+00  -1.481688e-01 1.250097e-01 0.000000e+00  -7.500116e-02 0.000000e+00 0.000000e+00  -2.198571e-01 2.389429e-01 0.000000e+00  -2.886045e-01 3.355327e-01 0.000000e+00  -2.168831e-01 1.194776e-01 0.000000e+00  -2.167563e-01 0.000000e+00 0.000000e+00  -2.789262e-01 1.120452e-01 0.000000e+00  -4.555204e-01 4.562784e-01 0.000000e+00  -4.856331e-01 4.226657e-01 0.000000e+00  -4.097063e-01 4.501824e-01 0.000000e+00  -3.527911e-01 4.080949e-01 0.000000e+00  -4.375665e-01 3.857261e-01 0.000000e+00  -4.505511e-01 3.163833e-01 0.000000e+00  -4.242920e-01 3.121577e-01 0.000000e+00  -4.069455e-01 7.987843e-02 0.000000e+00  -4.252530e-01 6.647858e-02 0.000000e+00  -4.074524e-01 0.000000e+00 0.000000e+00  -4.094182e-01 1.587327e-01 0.000000e+00  -4.314335e-01 1.956121e-01 0.000000e+00  -4.150754e-01 2.363068e-01 0.000000e+00  -3.755608e-01 9.206253e-02 0.000000e+00  -3.322470e-01 0.000000e+00 0.000000e+00  -3.323884e-01 1.028477e-01 0.000000e+00  -3.424238e-01 3.069230e-01 0.000000e+00  -3.850410e-01 2.736206e-01 0.000000e+00  -3.357933e-01 2.051482e-01 0.000000e+00  -1.140202e-01 -5.001826e-02 0.000000e+00  -1.145298e-01 0.000000e+00 0.000000e+00  0.000000e+00 -7.143252e-02 0.000000e+00  -2.098799e-01 -3.152726e-02 0.000000e+00  -2.902514e-01 0.000000e+00 0.000000e+00  -2.878300e-01 -1.361093e-02 0.000000e+00  -1.128097e-01 -9.894892e-02 0.000000e+00  0.000000e+00 -2.037230e-01 0.000000e+00  -1.117485e-01 -1.473683e-01 0.000000e+00  -1.097526e-01 -2.940428e-01 0.000000e+00  -1.093906e-01 -3.447065e-01 0.000000e+00  0.000000e+00 -4.609860e-01 0.000000e+00  -2.050688e-01 -1.593003e-01 0.000000e+00  -2.845805e-01 -7.535012e-02 0.000000e+00  -2.840661e-01 -5.779063e-02 0.000000e+00  -1.102371e-01 -2.445053e-01 0.000000e+00  0.000000e+00 -3.327706e-01 0.000000e+00  -1.108927e-01 -1.957452e-01 0.000000e+00  -4.184268e-01 3.668315e-02 0.000000e+00  -4.293877e-01 5.203089e-02 0.000000e+00  -4.309412e-01 0.000000e+00 0.000000e+00  -3.903732e-01 4.015969e-02 0.000000e+00  -3.909002e-01 5.837325e-02 0.000000e+00  -3.458285e-01 8.873248e-03 0.000000e+00  -3.915965e-01 2.056130e-02 0.000000e+00  -3.940291e-01 0.000000e+00 0.000000e+00  -3.482470e-01 3.769377e-03 0.000000e+00  -2.844170e-01 -4.203605e-02 0.000000e+00  -2.856670e-01 -2.750202e-02 0.000000e+00  -2.064468e-01 -9.415877e-02 0.000000e+00  -1.008305e-01 -7.385726e-01 0.000000e+00  0.000000e+00 -9.713963e-01 0.000000e+00  -2.031389e-01 -5.105374e-01 0.000000e+00  -2.988314e-01 -2.931039e-01 0.000000e+00  -1.038842e-01 -6.797147e-01 0.000000e+00  0.000000e+00 -8.492857e-01 0.000000e+00  -1.059815e-01 -6.208181e-01 0.000000e+00  -4.816872e-01 2.345149e-01 0.000000e+00  -4.954890e-01 3.481848e-01 0.000000e+00  -4.429739e-01 8.580014e-02 0.000000e+00  -3.807273e-01 -9.220825e-02 0.000000e+00  -4.314080e-01 9.846339e-02 0.000000e+00  -4.206420e-01 1.041106e-01 0.000000e+00  -3.683562e-01 -3.804707e-02 0.000000e+00  -1.087267e-01 -4.504463e-01 0.000000e+00  -1.090808e-01 -3.967782e-01 0.000000e+00  0.000000e+00 -5.901101e-01 0.000000e+00  -2.065540e-01 -3.124683e-01 0.000000e+00  -2.904414e-01 -1.446172e-01 0.000000e+00  -2.932301e-01 -1.750151e-01 0.000000e+00  -1.082023e-01 -5.057737e-01 0.000000e+00  0.000000e+00 -7.203125e-01 0.000000e+00  -1.073499e-01 -5.626626e-01 0.000000e+00  -2.97