<?xml version="1.0"?>
<VTKFile type="UnstructuredGrid"  version="0.1"  >
<UnstructuredGrid>
<Piece  NumberOfPoints="16705" NumberOfCells="32768">
<Points>
<DataArray  type="Float32"  NumberOfComponents="3"  format="ascii">0 0 0  1 0 0  1 1 0  0 1 0  -1 1 0  -1 0 0  -1 -1 0  0 -1 0  1 -1 0  1 0 0  0.5 0.5 0  0 0.5 0  0.5 0 0  0.5 1 0  1 0.5 0  -0.5 1 0  -0.5 0.5 0  -1 0.5 0  -0.5 0 0  -0.5 -0.5 0  0 -0.5 0  -0.5 -1 0  -1 -0.5 0  0.5 -1 0  0.5 -0.5 0  1 -0.5 0  0.5 0 0  0.25 0.25 0  0.25 0 0  0 0.25 0  0.5 0.25 0  0.75 0 0  0.75 0.25 0  0.25 0.5 0  0 0.75 0  0.25 0.75 0  0.75 0.5 0  1 0.25 0  0.75 0.75 0  1 0.75 0  0.75 1 0  0.5 0.75 0  0.25 1 0  -0.25 0.5 0  -0.25 0.25 0  -0.25 0.75 0  -0.25 1 0  -0.5 0.75 0  -0.75 0.75 0  -0.75 1 0  -0.5 0.25 0  -0.25 0 0  -0.75 0.5 0  -1 0.75 0  -0.75 0.25 0  -0.75 0 0  -1 0.25 0  -0.25 -0.25 0  0 -0.25 0  -0.5 -0.25 0  -0.75 -0.25 0  -0.25 -0.5 0  0 -0.75 0  -0.25 -0.75 0  -0.75 -0.5 0  -1 -0.25 0  -0.75 -0.75 0  -1 -0.75 0  -0.75 -1 0  -0.5 -0.75 0  -0.25 -1 0  0.25 -0.5 0  0.25 -0.25 0  0.25 -0.75 0  0.25 -1 0  0.5 -0.75 0  0.75 -0.75 0  0.75 -1 0  0.5 -0.25 0  0.25 0 0  0.75 -0.5 0  1 -0.75 0  0.75 -0.25 0  0.75 0 0  1 -0.25 0  0.125 0.125 0  0 0.125 0  0.125 0 0  0.125 0.25 0  0 0.375 0  0.125 0.375 0  0.25 0.125 0  0.375 0 0  0.375 0.125 0  0.75 0.125 0  0.875 0.125 0  0.875 0 0  0.625 0.25 0  0.625 0.375 0  0.5 0.375 0  0.625 0.125 0  0.625 0 0  0.5 0.125 0  0.125 0.75 0  0.125 0.875 0  0 0.875 0  0.25 0.625 0  0.375 0.625 0  0.375 0.5 0  0.125 0.625 0  0 0.625 0  0.125 0.5 0  0.375 0.375 0  0.25 0.375 0  0.375 0.25 0  0.875 0.25 0  1 0.125 0  0.75 0.375 0  0.625 0.5 0  0.875 0.375 0  1 0.375 0  0.875 0.5 0  0.875 0.875 0  0.875 1 0  1 0.875 0  0.75 0.875 0  0.625 1 0  0.625 0.875 0  0.875 0.75 0  1 0.625 0  0.875 0.625 0  0.25 0.875 0  0.125 1 0  0.375 0.75 0  0.5 0.625 0  0.375 0.875 0  0.375 1 0  0.5 0.875 0  0.625 0.625 0  0.625 0.75 0  0.75 0.625 0  -0.125 0.25 0  -0.125 0.125 0  -0.125 0.375 0  -0.125 0.5 0  -0.25 0.375 0  -0.375 0.375 0  -0.375 0.5 0  -0.125 0.875 0  -0.125 1 0  -0.125 0.75 0  -0.125 0.625 0  -0.25 0.875 0  -0.375 1 0  -0.375 0.875 0  -0.75 0.875 0  -0.875 1 0  -0.875 0.875 0  -0.625 0.875 0  -0.625 1 0  -0.5 0.875 0  -0.625 0.75 0  -0.625 0.625 0  -0.5 0.625 0  -0.25 0.625 0  -0.375 0.75 0  -0.375 0.625 0  -0.25 0.125 0  -0.125 0 0  -0.375 0.25 0  -0.5 0.375 0  -0.375 0.125 0  -0.375 0 0  -0.5 0.125 0  -0.875 0.75 0  -1 0.875 0  -0.75 0.625 0  -0.625 0.5 0  -0.875 0.625 0  -1 0.625 0  -0.875 0.5 0  -0.875 0.125 0  -1 0.125 0  -0.875 0 0  -0.875 0.25 0  -1 0.375 0  -0.875 0.375 0  -0.75 0.125 0  -0.625 0 0  -0.625 0.125 0  -0.625 0.375 0  -0.75 0.375 0  -0.625 0.25 0  -0.125 -0.125 0  0 -0.125 0  -0.25 -0.125 0  -0.375 -0.125 0  -0.125 -0.25 0  0 -0.375 0  -0.125 -0.375 0  -0.75 -0.125 0  -0.875 -0.125 0  -0.625 -0.125 0  -0.5 -0.125 0  -0.625 -0.25 0  -0.625 -0.375 0  -0.5 -0.375 0  -0.125 -0.75 0  -0.125 -0.875 0  0 -0.875 0  -0.25 -0.625 0  -0.375 -0.625 0  -0.375 -0.5 0  -0.125 -0.625 0  0 -0.625 0  -0.125 -0.5 0  -0.375 -0.25 0  -0.375 -0.375 0  -0.25 -0.375 0  -0.875 -0.25 0  -1 -0.125 0  -0.75 -0.375 0  -0.625 -0.5 0  -0.875 -0.375 0  -1 -0.375 0  -0.875 -0.5 0  -0.875 -0.875 0  -0.875 -1 0  -1 -0.875 0  -0.75 -0.875 0  -0.625 -1 0  -0.625 -0.875 0  -0.875 -0.75 0  -1 -0.625 0  -0.875 -0.625 0  -0.25 -0.875 0  -0.125 -1 0  -0.375 -0.75 0  -0.5 -0.625 0  -0.375 -0.875 0  -0.375 -1 0  -0.5 -0.875 0  -0.625 -0.625 0  -0.625 -0.75 0  -0.75 -0.625 0  0.125 -0.25 0  0.125 -0.125 0  0.125 -0.375 0  0.125 -0.5 0  0.25 -0.375 0  0.375 -0.375 0  0.375 -0.5 0  0.125 -0.875 0  0.125 -1 0  0.125 -0.75 0  0.125 -0.625 0  0.25 -0.875 0  0.375 -1 0  0.375 -0.875 0  0.75 -0.875 0  0.875 -1 0  0.875 -0.875 0  0.625 -0.875 0  0.625 -1 0  0.5 -0.875 0  0.625 -0.75 0  0.625 -0.625 0  0.5 -0.625 0  0.25 -0.625 0  0.375 -0.75 0  0.375 -0.625 0  0.25 -0.125 0  0.125 0 0  0.375 -0.25 0  0.5 -0.375 0  0.375 -0.125 0  0.375 0 0  0.5 -0.125 0  0.875 -0.75 0  1 -0.875 0  0.75 -0.625 0  0.625 -0.5 0  0.875 -0.625 0  1 -0.625 0  0.875 -0.5 0  0.875 -0.125 0  1 -0.125 0  0.875 0 0  0.875 -0.25 0  1 -0.375 0  0.875 -0.375 0  0.75 -0.125 0  0.625 0 0  0.625 -0.125 0  0.625 -0.375 0  0.75 -0.375 0  0.625 -0.25 0  0.0625 0.0625 0  0.0625 0 0  0 0.0625 0  0.125 0.0625 0  0.1875 0 0  0.1875 0.0625 0  0.0625 0.125 0  0 0.1875 0  0.0625 0.1875 0  0.0625 0.375 0  0.0625 0.4375 0  0 0.4375 0  0.125 0.3125 0  0.1875 0.3125 0  0.1875 0.25 0  0.0625 0.3125 0  0 0.3125 0  0.0625 0.25 0  0.375 0.0625 0  0.4375 0.0625 0  0.4375 0 0  0.3125 0.125 0  0.3125 0.1875 0  0.25 0.1875 0  0.3125 0.0625 0  0.3125 0 0  0.25 0.0625 0  0.1875 0.1875 0  0.1875 0.125 0  0.125 0.1875 0  0.875 0.0625 0  0.9375 0 0  0.9375 0.0625 0  0.8125 0.0625 0  0.8125 0 0  0.75 0.0625 0  0.8125 0.125 0  0.8125 0.1875 0  0.75 0.1875 0  0.5625 0.375 0  0.5 0.4375 0  0.5625 0.4375 0  0.5625 0.3125 0  0.5 0.3125 0  0.5625 0.25 0  0.625 0.3125 0  0.6875 0.3125 0  0.6875 0.25 0  0.5625 0.0625 0  0.5 0.0625 0  0.5625 0 0  0.5625 0.125 0  0.5 0.1875 0  0.5625 0.1875 0  0.625 0.0625 0  0.6875 0 0  0.6875 0.0625 0  0.625 0.1875 0  0.6875 0.125 0  0.6875 0.1875 0  0.0625 0.875 0  0 0.9375 0  0.0625 0.9375 0  0.0625 0.8125 0  0 0.8125 0  0.0625 0.75 0  0.125 0.8125 0  0.1875 0.8125 0  0.1875 0.75 0  0.375 0.5625 0  0.4375 0.5 0  0.4375 0.5625 0  0.3125 0.5625 0  0.3125 0.5 0  0.25 0.5625 0  0.3125 0.625 0  0.3125 0.6875 0  0.25 0.6875 0  0.0625 0.5625 0  0.0625 0.5 0  0 0.5625 0  0.125 0.5625 0  0.1875 0.5 0  0.1875 0.5625 0  0.0625 0.625 0  0 0.6875 0  0.0625 0.6875 0  0.1875 0.625 0  0.125 0.6875 0  0.1875 0.6875 0  0.4375 0.4375 0  0.4375 0.375 0  0.4375 0.3125 0  0.375 0.4375 0  0.3125 0.4375 0  0.125 0.4375 0  0.1875 0.375 0  0.25 0.3125 0  0.1875 0.4375 0  0.25 0.4375 0  0.4375 0.125 0  0.375 0.1875 0  0.3125 0.25 0  0.4375 0.1875 0  0.4375 0.25 0  0.3125 0.3125 0  0.375 0.3125 0  0.3125 0.375 0  0.9375 0.125 0  1 0.0625 0  0.875 0.1875 0  0.8125 0.25 0  0.9375 0.1875 0  1 0.1875 0  0.9375 0.25 0  0.625 0.4375 0  0.5625 0.5 0  0.6875 0.375 0  0.75 0.3125 0  0.6875 0.4375 0  0.6875 0.5 0  0.75 0.4375 0  0.9375 0.4375 0  0.9375 0.5 0  1 0.4375 0  0.875 0.4375 0  0.8125 0.5 0  0.8125 0.4375 0  0.9375 0.375 0  1 0.3125 0  0.9375 0.3125 0  0.8125 0.3125 0  0.8125 0.375 0  0.875 0.3125 0  0.9375 0.9375 0  1 0.9375 0  0.9375 1 0  0.9375 0.875 0  1 0.8125 0  0.9375 0.8125 0  0.875 0.9375 0  0.8125 1 0  0.8125 0.9375 0  0.625 0.9375 0  0.5625 0.9375 0  0.5625 1 0  0.6875 0.875 0  0.6875 0.8125 0  0.75 0.8125 0  0.6875 0.9375 0  0.6875 1 0  0.75 0.9375 0  0.9375 0.625 0  0.9375 0.5625 0  1 0.5625 0  0.875 0.6875 0  0.8125 0.6875 0  0.8125 0.75 0  0.9375 0.6875 0  1 0.6875 0  0.9375 0.75 0  0.8125 0.8125 0  0.875 0.8125 0  0.8125 0.875 0  0.125 0.9375 0  0.0625 1 0  0.1875 0.875 0  0.25 0.8125 0  0.1875 0.9375 0  0.1875 1 0  0.25 0.9375 0  0.4375 0.625 0  0.5 0.5625 0  0.375 0.6875 0  0.3125 0.75 0  0.4375 0.6875 0  0.5 0.6875 0  0.4375 0.75 0  0.4375 0.9375 0  0.5 0.9375 0  0.4375 1 0  0.4375 0.875 0  0.5 0.8125 0  0.4375 0.8125 0  0.375 0.9375 0  0.3125 1 0  0.3125 0.9375 0  0.3125 0.8125 0  0.375 0.8125 0  0.3125 0.875 0  0.5625 0.5625 0  0.625 0.5625 0  0.6875 0.5625 0  0.5625 0.625 0  0.5625 0.6875 0  0.5625 0.875 0  0.625 0.8125 0  0.6875 0.75 0  0.5625 0.8125 0  0.5625 0.75 0  0.875 0.5625 0  0.8125 0.5625 0  0.75 0.5625 0  0.8125 0.625 0  0.75 0.6875 0  0.6875 0.625 0  0.6875 0.6875 0  0.625 0.6875 0  -0.0625 0.125 0  -0.0625 0.0625 0  -0.0625 0.1875 0  -0.0625 0.25 0  -0.125 0.1875 0  -0.1875 0.1875 0  -0.1875 0.25 0  -0.0625 0.4375 0  -0.0625 0.5 0  -0.0625 0.375 0  -0.0625 0.3125 0  -0.125 0.4375 0  -0.1875 0.5 0  -0.1875 0.4375 0  -0.375 0.4375 0  -0.4375 0.5 0  -0.4375 0.4375 0  -0.3125 0.4375 0  -0.3125 0.5 0  -0.25 0.4375 0  -0.3125 0.375 0  -0.3125 0.3125 0  -0.25 0.3125 0  -0.125 0.3125 0  -0.1875 0.375 0  -0.1875 0.3125 0  -0.0625 0.9375 0  -0.0625 1 0  -0.0625 0.875 0  -0.0625 0.8125 0  -0.125 0.9375 0  -0.1875 1 0  -0.1875 0.9375 0  -0.0625 0.625 0  -0.0625 0.5625 0  -0.0625 0.6875 0  -0.0625 0.75 0  -0.125 0.6875 0  -0.1875 0.6875 0  -0.1875 0.75 0  -0.375 0.9375 0  -0.4375 0.9375 0  -0.4375 1 0  -0.3125 0.875 0  -0.3125 0.8125 0  -0.25 0.8125 0  -0.3125 0.9375 0  -0.3125 1 0  -0.25 0.9375 0  -0.125 0.8125 0  -0.1875 0.8125 0  -0.1875 0.875 0  -0.875 0.9375 0  -0.9375 0.9375 0  -0.9375 1 0  -0.8125 0.875 0  -0.8125 0.8125 0  -0.75 0.8125 0  -0.8125 0.9375 0  -0.8125 1 0  -0.75 0.9375 0  -0.5625 0.9375 0  -0.5 0.9375 0  -0.5625 1 0  -0.5625 0.875 0  -0.5 0.8125 0  -0.5625 0.8125 0  -0.625 0.9375 0  -0.6875 1 0  -0.6875 0.9375 0  -0.5625 0.625 0  -0.5 0.5625 0  -0.5625 0.5625 0  -0.5625 0.6875 0  -0.5 0.6875 0  -0.5625 0.75 0  -0.625 0.6875 0  -0.6875 0.6875 0  -0.6875 0.75 0  -0.625 0.8125 0  -0.6875 0.8125 0  -0.6875 0.875 0  -0.125 0.5625 0  -0.1875 0.5625 0  -0.25 0.5625 0  -0.1875 0.625 0  -0.25 0.6875 0  -0.4375 0.875 0  -0.375 0.8125 0  -0.3125 0.75 0  -0.4375 0.8125 0  -0.4375 0.75 0  -0.4375 0.5625 0  -0.375 0.5625 0  -0.3125 0.5625 0  -0.4375 0.625 0  -0.4375 0.6875 0  -0.3125 0.625 0  -0.3125 0.6875 0  -0.375 0.6875 0  -0.125 0.0625 0  -0.0625 0 0  -0.1875 0.125 0  -0.25 0.1875 0  -0.1875 0.0625 0  -0.1875 0 0  -0.25 0.0625 0  -0.4375 0.375 0  -0.5 0.4375 0  -0.375 0.3125 0  -0.3125 0.25 0  -0.4375 0.3125 0  -0.5 0.3125 0  -0.4375 0.25 0  -0.4375 0.0625 0  -0.5 0.0625 0  -0.4375 0 0  -0.4375 0.125 0  -0.5 0.1875 0  -0.4375 0.1875 0  -0.375 0.0625 0  -0.3125 0 0  -0.3125 0.0625 0  -0.3125 0.1875 0  -0.375 0.1875 0  -0.3125 0.125 0  -0.9375 0.875 0  -1 0.9375 0  -0.875 0.8125 0  -0.8125 0.75 0  -0.9375 0.8125 0  -1 0.8125 0  -0.9375 0.75 0  -0.625 0.5625 0  -0.5625 0.5 0  -0.6875 0.625 0  -0.75 0.6875 0  -0.6875 0.5625 0  -0.6875 0.5 0  -0.75 0.5625 0  -0.9375 0.5625 0  -0.9375 0.5 0  -1 0.5625 0  -0.875 0.5625 0  -0.8125 0.5 0  -0.8125 0.5625 0  -0.9375 0.625 0  -1 0.6875 0  -0.9375 0.6875 0  -0.8125 0.6875 0  -0.8125 0.625 0  -0.875 0.6875 0  -0.9375 0.0625 0  -0.9375 0 0  -1 0.0625 0  -0.875 0.0625 0
[...]
<PointData  Vectors="u"> 
<DataArray  type="Float32"  Name="u"  NumberOfComponents="3" format="ascii">-9.213167e+00 -2.473857e+00 0.000000e+00  0.000000e+00 0.000000e+00 0.000000e+00  0.000000e+00 0.000000e+00 0.000000e+00  0.000000e+00 -1.223265e+00 0.000000e+00  0.000000e+00 0.000000e+00 0.000000e+00  1.731631e+00 0.000000e+00 0.000000e+00  0.000000e+00 0.000000e+00 0.000000e+00  0.000000e+00 1.224973e+00 0.000000e+00  0.000000e+00 0.000000e+00 0.000000e+00  0.000000e+00 0.000000e+00 0.000000e+00  -4.367477e-01 2.630295e-01 0.000000e+00  -5.692255e-01 1.141884e-01 0.000000e+00  0.000000e+00 3.765377e-01 0.000000e+00  0.000000e+00 -6.821064e-01 0.000000e+00  -3.939838e-01 0.000000e+00 0.000000e+00  0.000000e+00 -1.238854e+00 0.000000e+00  6.627319e-02 -3.551706e-01 0.000000e+00  1.358827e+00 0.000000e+00 0.000000e+00  -1.596730e-01 5.519445e-04 0.000000e+00  6.620806e-02 3.561065e-01 0.000000e+00  -5.692254e-01 -1.125899e-01 0.000000e+00  0.000000e+00 1.240462e+00 0.000000e+00  1.359809e+00 0.000000e+00 0.000000e+00  0.000000e+00 6.824490e-01 0.000000e+00  -4.367670e-01 -2.617275e-01 0.000000e+00  -3.940046e-01 0.000000e+00 0.000000e+00  0.000000e+00 -8.030605e-01 0.000000e+00  -5.404631e-01 9.391471e-01 0.000000e+00  0.000000e+00 6.738510e-01 0.000000e+00  -1.012995e+00 8.197424e-01 0.000000e+00  -3.282603e-01 6.386207e-01 0.000000e+00  0.000000e+00 1.792534e-01 0.000000e+00  -2.664107e-01 3.184304e-01 0.000000e+00  -5.199188e-01 2.841964e-01 0.000000e+00  -2.706738e-01 -5.383341e-01 0.000000e+00  -3.145167e-01 -3.398426e-01 0.000000e+00  -3.976506e-01 1.486401e-01 0.000000e+00  -2.545064e-01 0.000000e+00 0.000000e+00  -3.192911e-01 -8.369862e-02 0.000000e+00  -3.293608e-01 0.000000e+00 0.000000e+00  0.000000e+00 -3.541311e-01 0.000000e+00  -3.181411e-01 -1.889285e-01 0.000000e+00  0.000000e+00 -9.813784e-01 0.000000e+00  -3.814867e-01 -1.806281e-01 0.000000e+00  -7.849713e-01 1.733566e-01 0.000000e+00  -1.347935e-01 -7.168936e-01 0.000000e+00  0.000000e+00 -1.340941e+00 0.000000e+00  1.087973e-01 -7.516366e-01 0.000000e+00  4.384270e-01 -5.355133e-01 0.000000e+00  0.000000e+00 -8.194452e-01 0.000000e+00  -7.166020e-02 -9.742719e-02 0.000000e+00  -1.156331e+00 1.016482e-03 0.000000e+00  6.661253e-01 -3.016379e-01 0.000000e+00  8.296356e-01 0.000000e+00 0.000000e+00  7.486216e-01 -1.268470e-01 0.000000e+00  7.628465e-01 2.425168e-04 0.000000e+00  1.643326e+00 0.000000e+00 0.000000e+00  -7.851048e-01 -1.718687e-01 0.000000e+00  -1.012742e+00 -8.179271e-01 0.000000e+00  -7.171444e-02 9.845498e-02 0.000000e+00  7.485943e-01 1.273124e-01 0.000000e+00  -3.815425e-01 1.819645e-01 0.000000e+00  -2.707233e-01 5.397740e-01 0.000000e+00  -1.348682e-01 7.181460e-01 0.000000e+00  6.660718e-01 3.020678e-01 0.000000e+00  1.643888e+00 0.000000e+00 0.000000e+00  4.383308e-01 5.359221e-01 0.000000e+00  8.308325e-01 0.000000e+00 0.000000e+00  0.000000e+00 8.205743e-01 0.000000e+00  1.087042e-01 7.525288e-01 0.000000e+00  0.000000e+00 1.342793e+00 0.000000e+00  -5.199194e-01 -2.825714e-01 0.000000e+00  -5.404336e-01 -9.369937e-01 0.000000e+00  -3.145517e-01 3.412453e-01 0.000000e+00  0.000000e+00 9.825248e-01 0.000000e+00  -3.181705e-01 1.900494e-01 0.000000e+00  -3.193149e-01 8.434892e-02 0.000000e+00  0.000000e+00 3.536549e-01 0.000000e+00  -3.282806e-01 -6.369787e-01 0.000000e+00  0.000000e+00 -1.427181e+00 0.000000e+00  -3.976660e-01 -1.478953e-01 0.000000e+00  -3.296556e-01 0.000000e+00 0.000000e+00  -2.664326e-01 -3.175117e-01 0.000000e+00  0.000000e+00 -3.815130e-01 0.000000e+00  -2.542559e-01 0.000000e+00 0.000000e+00  -7.354605e-01 1.580724e+00 0.000000e+00  -1.531098e+00 1.374921e+00 0.000000e+00  0.000000e+00 1.034904e+00 0.000000e+00  -7.708002e-01 9.932515e-01 0.000000e+00  -7.545627e-01 4.461251e-01 0.000000e+00  -6.771302e-01 5.784520e-01 0.000000e+00  -3.713532e-01 1.267489e+00 0.000000e+00  0.000000e+00 4.997578e-01 0.000000e+00  -2.405426e-01 9.906892e-01 0.000000e+00  -1.427914e-01 3.668066e-01 0.000000e+00  -1.364264e-01 1.823547e-01 0.000000e+00  0.000000e+00 8.928531e-02 0.000000e+00  -2.877427e-01 4.779572e-01 0.000000e+00  -3.757393e-01 3.590439e-01 0.000000e+00  -4.131154e-01 4.654550e-01 0.000000e+00  -1.565732e-01 5.573949e-01 0.000000e+00  0.000000e+00 2.733805e-01 0.000000e+00  -1.840262e-01 7.611000e-01 0.000000e+00  -3.011097e-01 -4.353234e-01 0.000000e+00  -1.563055e-01 -7.700254e-01 0.000000e+00  -1.341647e-01 -8.755019e-01 0.000000e+00  -4.324596e-01 -2.769820e-02 0.000000e+00  -4.184559e-01 2.040390e-02 0.000000e+00  -4.738412e-01 2.913394e-01 0.000000e+00  -4.356381e-01 -1.055151e-01 0.000000e+00  -4.132716e-01 -2.100201e-01 0.000000e+00  -5.611233e-01 2.267089e-01 0.000000e+00  -4.745176e-01 5.538345e-01 0.000000e+00  -5.659877e-01 6.037595e-01 0.000000e+00  -4.031077e-01 7.979844e-01 0.000000e+00  -2.565815e-01 1.594353e-01 0.000000e+00  -1.348673e-01 0.000000e+00 0.000000e+00  -3.550513e-01 2.437238e-01 0.000000e+00  -4.117630e-01 2.125344e-01 0.000000e+00  -3.458216e-01 1.234381e-01 0.000000e+00  -3.449280e-01 0.000000e+00 0.000000e+00  -3.923056e-01 7.669524e-02 0.000000e+00  -1.954730e-01 -1.081932e-01 0.000000e+00  0.000000e+00 -1.809192e-01 0.000000e+00  -2.006518e-01 0.000000e+00 0.000000e+00  -1.909877e-01 -2.148413e-01 0.000000e+00  0.000000e+00 -5.211147e-01 0.000000e+00  -1.870722e-01 -3.218629e-01 0.000000e+00  -3.230960e-01 -4.064561e-02 0.000000e+00  -3.915498e-01 0.000000e+00 0.000000e+00  -3.869885e-01 2.141211e-02 0.000000e+00  -1.699455e-01 -6.569186e-01 0.000000e+00  0.000000e+00 -1.112743e+00 0.000000e+00  -3.182389e-01 -2.574835e-01 0.000000e+00  -4.036206e-01 4.312712e-02 0.000000e+00  -1.780296e-01 -5.428054e-01 0.000000e+00  0.000000e+00 -8.363173e-01 0.000000e+00  -1.831261e-01 -4.308961e-01 0.000000e+00  -3.927205e-01 4.707640e-02 0.000000e+00  -3.178811e-01 -1.320522e-01 0.000000e+00  -3.871940e-01 3.827284e-02 0.000000e+00  -1.019558e+00 4.659054e-01 0.000000e+00  -1.494118e+00 5.350655e-01 0.000000e+00  -7.219353e-01 2.374215e-01 0.000000e+00  -5.134014e-01 -3.396221e-02 0.000000e+00  -5.604391e-01 3.272371e-02 0.000000e+00  -3.067430e-01 -1.180485e-01 0.000000e+00  -1.827766e-01 -2.934984e-01 0.000000e+00  -1.009066e-01 -9.631392e-01 0.000000e+00  0.000000e+00 -1.303228e+00 0.000000e+00  -2.164929e-01 -6.374380e-01 0.000000e+00  -3.511000e-01 -3.271899e-01 0.000000e+00  -5.494675e-02 -1.020024e+00 0.000000e+00  0.000000e+00 -1.323712e+00 0.000000e+00  3.998196e-03 -1.032150e+00 0.000000e+00  2.489411e-01 -6.720062e-01 0.000000e+00  0.000000e+00 -4.641948e-01 0.000000e+00  3.489357e-01 -3.848323e-01 0.000000e+00  1.572782e-01 -8.694177e-01 0.000000e+00  0.000000e+00 -1.074400e+00 0.000000e+00  7.517013e-02 -9.859868e-01 0.000000e+00  2.645663e-01 -6.799447e-01 0.000000e+00  3.272581e-01 -5.086954e-01 0.000000e+00  1.042505e-01 -5.396248e-01 0.000000e+00  -2.420720e-01 -4.350211e-01 0.000000e+00  -2.550689e-02 -7.599424e-01 0.000000e+00  -8.801317e-02 -5.114160e-01 0.000000e+00  -1.029392e+00 1.761643e-01 0.000000e+00  -1.937582e+00 2.275179e-03 0.000000e+00  -4.483759e-01 -3.419641e-03 0.000000e+00  2.879339e-03 -2.053304e-01 0.000000e+00  -5.749011e-01 3.220457e-02 0.000000e+00  -6.287660e-01 7.344017e-04 0.000000e+00  -1.345396e-01 -3.326297e-02 0.000000e+00  6.276622e-01 -3.109495e-01 0.000000e+00  4.556236e-01 0.000000e+00 0.000000e+00  5.749898e-01 -4.115878e-01 0.000000e+00  3.521556e-01 -3.587315e-01 0.000000e+00  8.431697e-01 -2.433698e-01 0.000000e+00  1.128340e+00 0.000000e+00 0.000000e+00  1.002913e+00 -1.825273e-01 0.000000e+00  1.226981e+00 -3.907436e-02 0.000000e+00  1.709827e+00 0.000000e+00 0.000000e+00  1.239623e+00 9.487923e-05 0.000000e+00  1.187135e+00 -8.121382e-02 0.000000e+00  1.528235e+00 0.000000e+00 0.000000e+00  1.114874e+00 -1.286047e-01 0.000000e+00  7.600534e-01 -5.959536e-02 0.000000e+00  2.986447e-01 3.933524e-04 0.000000e+00  3.075616e-01 -5.940738e-02 0.000000e+00  3.484884e-01 -2.332892e-01 0.000000e+00  7.206695e-01 -2.067505e-01 0.000000e+00  3.286613e-01 -1.342643e-01 0.000000e+00  -1.494841e+00 -5.335498e-01 0.000000e+00  -1.529298e+00 -1.373727e+00 0.000000e+00  -1.029634e+00 -1.744451e-01 0.000000e+00  -5.749831e-01 -3.080543e-02 0.000000e+00  -1.019636e+00 -4.643443e-01 0.000000e+00  -7.545009e-01 -4.444052e-01 0.000000e+00  -7.219552e-01 -2.358679e-01 0.000000e+00  7.600392e-01 6.007490e-02 0.000000e+00  1.226971e+00 3.926130e-02 0.000000e+00  3.075402e-01 6.018324e-02 0.000000e+00  -1.345767e-01 3.434262e-02 0.000000e+00  3.286241e-01 1.350138e-01 0.000000e+00  3.484399e-01 2.340082e-01 0.000000e+00  2.820059e-03 2.063070e-01 0.000000e+00  -2.165548e-01 6.388090e-01 0.000000e+00  -1.009816e-01 9.644903e-01 0.000000e+00  -1.342272e-01 8.769126e-01 0.000000e+00  -2.421342e-01 4.363068e-01 0.000000e+00  -8.808550e-02 5.125299e-01 0.000000e+00  -1.828423e-01 2.946517e-01 0.000000e+00  -3.511466e-01 3.286073e-01 0.000000e+00  -4.133021e-01 2.115229e-01 0.000000e+00  -5.134314e-01 3.544675e-02 0.000000e+00  -4.484626e-01 4.707902e-03 0.000000e+00  -3.068133e-01 1.192573e-01 0.000000e+00  -5.605075e-01 -3.132409e-02 0.000000e+00  1.187115e+00 8.139314e-02 0.000000e+00  1.710118e+00 0.000000e+00 0.000000e+00  7.206300e-01 2.071977e-01 0.000000e+00  3.520952e-01 3.594233e-01 0.000000e+00  1.114844e+00 1.287735e-01 0.000000e+00  1.529031e+00 0.000000e+00 0.000000e+00  1.002869e+00 1.826850e-01 0.000000e+00  3.488112e-01 3.849655e-01 0.000000e+00  0.000000e+00 4.650280e-01 0.000000e+00  4.568532e-01 0.000000e+00 0.000000e+00  2.488121e-01 6.724167e-01 0.000000e+00  0.000000e+00 1.075789e+00 0.000000e+00  1.571550e-01 8.700834e-01 0.000000e+00  6.275738e-01 3.110891e-01 0.000000e+00  1.129456e+00 0.000000e+00 0.000000e+00  8.431068e-01 2.435173e-01 0.000000e+00  -5.503516e-02 1.021265e+00 0.000000e+00  0.000000e+00 1.305064e+00 0.000000e+00  -2.559235e-02 7.610333e-01 0.000000e+00  1.041741e-01 5.405321e-01 0.000000e+00  3.896681e-03 1.033237e+00 0.000000e+00  0.000000e+00 1.325481e+00 0.000000e+00  7.505671e-02 9.868796e-01 0.000000e+00  3.271821e-01 5.093676e-01 0.000000e+00  2.644693e-01 6.806072e-01 0.000000e+00  5.749181e-01 4.120041e-01 0.000000e+00  -7.706117e-01 -9.910401e-01 0.000000e+00  -7.353199e-01 -1.577621e+00 0.000000e+00  -6.770604e-01 -5.765991e-01 0.000000e+00  -5.611135e-01 -2.250527e-01 0.000000e+00  -5.659629e-01 -6.019239e-01 0.000000e+00  -4.745232e-01 -5.521483e-01 0.000000e+00  -4.738541e-01 -2.898381e-01 0.000000e+00  -1.563575e-01 7.714404e-01 0.000000e+00  0.000000e+00 1.114215e+00 0.000000e+00  -3.011501e-01 4.367757e-01 0.000000e+00  -4.356599e-01 1.070452e-01 0.000000e+00  -1.699891e-01 6.582794e-01 0.000000e+00  0.000000e+00 8.370763e-01 0.000000e+00  -1.780668e-01 5.440540e-01 0.000000e+00  -1.910146e-01 2.154652e-01 0.000000e+00  0.000000e+00 1.800625e-01 0.000000e+00  -1.955091e-01 1.085498e-01 0.000000e+00  -1.871002e-01 3.227339e-01 0.000000e+00  0.000000e+00 5.210392e-01 0.000000e+00  -1.831581e-01 4.319788e-01 0.000000e+00  -3.179078e-01 1.329555e-01 0.000000e+00  -3.927435e-01 -4.611596e-02 0.000000e+00  -4.036451e-01 -4.193437e-02 0.000000e+00  -4.324807e-01 2.918577e-02 0.000000e+00  -3.182708e-01 2.587740e-01 0.000000e+00  -4.184793e-01 -1.903136e-02 0.000000e+00  -3.714327e-01 -1.264930e+00 0.000000e+00  0.000000e+00 -2.142803e+00 0.000000e+00  -4.031220e-01 -7.960535e-01 0.000000e+00  -4.131321e-01 -4.640029e-01 0.000000e+00  -2.405923e-01 -9.884765e-01 0.000000e+00  0.000000e+00 -1.064293e+00 0.000000e+00  -1.840534e-01 -7.592390e-01 0.000000e+00  -3.231163e-01 4.102416e-02 0.000000e+00  -2.010591e-01 0.000000e+00 0.000000e+00  -3.872123e-01 -3.758333e-02 0.000000e+00  -4.117828e-01 -2.114897e-01 0.000000e+00  -3.869972e-01 -2.101730e-02 0.000000e+00  -3.917177e-01 0.000000e+00 0.000000e+00  -3.923104e-01 -7.627886e-02 0.000000e+00  -1.364771e-01 -1.817724e-01 0.000000e+00  -1.345903e-01 0.000000e+00 0.000000e+00  0.000000e+00 -1.886282e-01 0.000000e+00  -2.566081e-01 -1.589388e-01 0.000000e+00  -3.447985e-01 0.000000e+00 0.000000e+00  -3.458315e-01 -1.229900e-01 0.000000e+00  -1.428126e-01 -3.657645e-01 0.000000e+00  0.000000e+00 -5.829272e-01 0.000000e+00  -1.565912e-01 -5.559254e-01 0.000000e+00  -3.757582e-01 -3.578853e-01 0.000000e+00  -3.550684e-01 -2.429037e-01 0.000000e+00  -2.877627e-01 -4.766554e-01 0.000000e+00  -1.068437e+00 2.352610e+00 0.000000e+00  0.000000e+00 1.586474e+00 0.000000e+00  -2.299931e+00 1.961326e+00 0.000000e+00  -5.065232e-01 1.951371e+00 0.000000e+00  0.000000e+00 8.094454e-01 0.000000e+00  -3.002622e-01 1.625296e+00 0.000000e+00  -1.115159e+00 1.630436e+00 0.000000e+00  -1.210483e+00 1.053683e+00 0.000000e+00  -1.011474e+00 1.221446e+00 0.000000e+00  -7.252471e-01 5.257707e-01 0.000000e+00  -6.462181e-01 3.472887e-01 0.000000e+00  -6.565659e-01 2.779236e-01 0.000000e+00  -7.289991e-01 7.732550e-01 0.000000e+00  -6.431360e-01 7.868898e-01 0.000000e+00  -6.438853e-01 9.851224e-01 0.000000e+00  -8.107801e-01 7.193208e-01 0.000000e+00  -8.694628e-01 6.236755e-01 0.000000e+00  -9.056250e-01 9.415433e-01 0.000000e+00  -1.264603e-01 1.047930e+00 0.000000e+00  -1.074935e-01 9.146819e-01 0.000000e+00  0.000000e+00 4.344878e-01 0.000000e+00  -2.912595e-01 1.121655e+00 0.000000e+00  -3.933701e-01 1.006959e+00 0.000000e+00  -4.801869e-01 1.109333e+00 0.000000e+00  -1.562399e-01 1.201362e+00 0.000000e+00  0.000000e+00 5.767529e-01 0.000000e+00  -2.063971e-01 1.386823e+00 0.000000e+00  -6.072956e-01 1.200997e+00 0.000000e+00  -5.045849e-01 1.427505e+00 0.000000e+00  -7.873901e-01 1.255369e+00 0.000000e+00  -6.924099e-02 1.882623e-01 0.000000e+00  0.000000e+00 4.508888e-02 0.000000e+00  -6.846276e-02 9.405023e-02 0.000000e+00  -7.057377e-02 2.831828e-01 0.000000e+00  0.000000e+00 1.339363e-01 0.000000e+00  -7.263879e-02 3.793392e-01 0.000000e+00  -1.389084e-01 2.741110e-01 0.000000e+00  -2.028404e-01 2.592155e-01 0.000000e+00  -2.080934e-01 3.462769e-01 0.000000e+00  -3.919225e-01 4.137569e-01 0.000000e+00  -4.323461e-01 3.669630e-01 0.000000e+00  -4.144409e-01 3.297235e-01 0.000000e+00  -3.552653e-01 4.905297e-01 0.000000e+00  -3.784955e-01 5.567964e-01 0.000000e+00  -3.048932e-01 5.581652e-01 0.000000e+00  -3.378687e-01 4.226364e-01 0.000000e+00  -3.250635e-01 3.536871e-01 0.000000e+00  -2.752782e-01 3.980679e-01 0.000000e+00  -8.610373e-02 6.834624e-01 0.000000e+00  -9.482820e-02 7.946356e-01 0.000000e+00  0.000000e+00 3.233603e-01 0.000000e+00  -1.679612e-01 6.569897e-01 0.000000e+00  -2.628905e-01 7.078893e-01 0.000000e+00  -2.418363e-01 6.144434e-01 0.000000e+00  -7.998380e-02 5.783533e-01 0.000000e+00  0.000000e+00 2.255749e-01 0.000000e+00  -7.566455e-02 4.774170e-01 0.000000e+00  -2.266741e-01 5.234140e-01 0.000000e+00  -1.484811e-01 4.609924e-01 0.000000e+00  -2.157892e-01 4.341993e-01 0.000000e+00  -1.464785e-01 -8.242766e-01 0.000000e+00  -6.693922e-02 -1.048058e+00 0.000000e+00  -7.391030e-02 -9.965295e-01 0.000000e+00  -2.179087e-01 -6.543426e-01 0.000000e+00  -2.019453e-01 -7.056503e-01 0.000000e+00  -2.884859e-01 -4.864702e-01 0.000000e+00  -2.300742e-01 -6.018021e-01 0.000000e+00  -2.390431e-01 -5.492406e-01 0.000000e+00  -3.094672e-01 -3.861560e-01 0.000000e+00  -4.522164e-01 1.567453e-01 0.000000e+00  -4.538108e-01 2.806823e-01 0.000000e+00  -4.388040e-01 1.589960e-01 0.000000e+00  -4.664942e-01 1.467901e-01 0.000000e+00  -4.962862e-01 2.931793e-01 0.000000e+00  -4.804291e-01 1.278665e-01 0.000000e+00  -4.260496e-01 -9.808582e-05 0.000000e+00  -3.760398e-01 -1.478734e-01 0.000000e+00  -3.769658e-01 -1.833793e-01 0.000000e+00  -4.993154e-01 1.011433e-02 0.000000e+00  -5.714509e-01 1.767503e-01 0.000000e+00  -4.888885e-01 -4.789083e-02 0.000000e+00  -4.994566e-01 5.956553e-02 0.000000e+00  -5.425935e-01 2.624819e-01 0.000000e+00  -4.922171e-01 9.895053e-02 0.000000e+00  -4.286394e-01 -1.550462e-01 0.000000e+00  -3.408749e-01 -3.732719e-01 0.000000e+00  -3.585721e-01 -3.202494e-01 0.000000e+00  -4.362485e-01 -6.284372e-02 0.000000e+00  -3.695747e-01 -2.701274e-01 0.000000e+00  -3.752416e-01 -2.242369e-01 0.000000e+00  -4.547340e-01 3.989803e-01 0.000000e+00  -4.403134e-01 5.128169e-01 0.000000e+00  -4.091533e-01 6.204010e-01 0.000000e+00  -4.819158e-01 4.239355e-01 0.000000e+00  -5.137679e-01 4.394051e-01 0.000000e+00  -6.205444e-01 3.983751e-01 0.000000e+00  -6.211903e-01 6.032315e-01 0.000000e+00  -5.654404e-01 7.693653e-01 0.000000e+00  -5.862904e-01 4.296682e-01 0.000000e+00  -5.493300e-01 4.424036e-01 0.000000e+00  -2.069826e-01 8.715266e-01 0.000000e+00  -3.337988e-01 9.042257e-01 0.000000e+00  -4.616293e-01 8.732163e-01 0.000000e+00  -2.922831e-01 8.043587e-01 0.000000e+00  -3.599976e-01 7.189280e-01 0.000000e+00  -5.007166e-01 7.309108e-01 0.000000e+00  -4.491853e-01 6.795016e-01 0.000000e+00  -5.164514e-01 5.855366e-01 0.000000e+00  -1.350703e-01 9.110401e-02 0.000000e+00  -6.835590e-02 0.000000e+00 0.000000e+00  -1.995136e-01 1.726647e-01 0.000000e+00  -2.603632e-01 2.389282e-01 0.000000e+00  -1.977589e-01 8.634069e-02 0.000000e+00  -1.975046e-01 0.000000e+00 0.000000e+00  -2.546750e-01 7.983340e-02 0.000000e+00  -4.005287e-01 2.886099e-01 0.000000e+00  -4.227727e-01 2.399067e-01 0.000000e+00  -3.636904e-01 3.021779e-01 0.000000e+00  -3.159049e-01 2.839902e-01 0.000000e+00  -3.900853e-01 2.445946e-01 0.000000e+00  -4.034808e-01 1.818659e-01 0.000000e+00  -3.826230e-01 1.983791e-01 0.000000e+00  -3.742913e-01 5.103858e-02 0.000000e+00  -3.923568e-01 3.879607e-02 0.000000e+00  -3.753064e-01 0.000000e+00 0.000000e+00  -3.750343e-01 1.012637e-01 0.000000e+00  -3.940047e-01 1.134320e-01 0.000000e+00  -3.777212e-01 1.504750e-01 0.000000e+00  -3.444455e-01 6.204881e-02 0.000000e+00  -3.041756e-01 0.000000e+00 0.000000e+00  -3.040971e-01 7.169264e-02 0.000000e+00  -3.096838e-01 2.137091e-01 0.000000e+00  -3.492444e-01 1.840579e-01 0.000000e+00  -3.058751e-01 1.429287e-01 0.000000e+00  -1.080548e-01 -7.247666e-02 0.000000e+00  -1.095393e-01 0.000000e+00 0.000000e+00  0.000000e+00 -9.174293e-02 0.000000e+00  -1.980296e-01 -5.439858e-02 0.000000e+00  -2.736965e-01 0.000000e+00 0.000000e+00  -2.704759e-01 -3.694937e-02 0.000000e+00  -1.064604e-01 -1.437346e-01 0.000000e+00  0.000000e+00 -2.683459e-01 0.000000e+00  -1.049360e-01 -2.139577e-01 0.000000e+00  -1.006068e-01 -4.202098e-01 0.000000e+00  -9.912641e-02 -4.879339e-01 0.000000e+00  0.000000e+00 -6.023789e-01 0.000000e+00  -1.889868e-01 -2.681916e-01 0.000000e+00  -2.610290e-01 -1.864538e-01 0.000000e+00  -2.628405e-01 -1.482374e-01 0.000000e+00  -1.020388e-01 -3.520431e-01 0.000000e+00  0.000000e+00 -4.383683e-01 0.000000e+00  -1.034702e-01 -2.833381e-01 0.000000e+00  -3.887369e-01 1.110447e-02 0.000000e+00  -3.975071e-01 2.544685e-02 0.000000e+00  -3.997594e-01 0.000000e+00 0.000000e+00  -3.627171e-01 -8.860793e-03 0.000000e+00  -3.612037e-01 -1.449900e-02 0.000000e+00  -3.208742e-01 -6.170141e-02 0.000000e+00  -3.651558e-01 -4.131072e-03 0.000000e+00  -3.683780e-01 0.000000e+00 0.000000e+00  -3.259717e-01 -2.017343e-02 0.000000e+00  -2.649907e-01 -1.107894e-01 0.000000e+00  -2.675256e-01 -7.379668e-02 0.000000e+00  -1.931358e-01 -1.615891e-01 0.000000e+00  -7.965371e-02 -9.402895e-01 0.000000e+00  0.000000e+00 -1.171160e+00 0.000000e+00  -1.640023e-01 -7.139250e-01 0.000000e+00  -2.454465e-01 -4.975746e-01 0.000000e+00  -8.433111e-02 -8.804936e-01 0.000000e+00  0.000000e+00 -1.049156e+00 0.000000e+00  -8.811423e-02 -8.181049e-01 0.000000e+00  -4.107403e-01 3.453152e-02 0.000000e+00  -4.269698e-01 1.548259e-01 0.000000e+00  -3.735643e-01 -1.176524e-01 0.000000e+00  -3.171713e-01 -2.968886e-01 0.000000e+00  -3.704081e-01 -9.238134e-02 0.000000e+00  -3.672108e-01 -7.156520e-02 0.000000e+00  -3.183882e-01 -2.215722e-01 0.000000e+00  -9.575037e-02 -6.221313e-01 0.000000e+00  -9.753473e-02 -5.552537e-01 0.000000e+00  0.000000e+00 -7.601633e-01 0.000000e+00  -1.808181e-01 -4.864861e-01 0.000000e+00  -2.567091e-01 -3.087530e-01 0.000000e+00  -2.550955e-01 -3.529557e-01 0.000000e+00  -9.367134e-02 -6.884302e-01 0.000000e+00  0.000000e+00 -9.102182e-01 0.000000e+00  -9.117400e-02 -7.538908e-01 0.000000e+00  