<?xml version="1.0"?>
<VTKFile type="UnstructuredGrid"  version="0.1"  >
<UnstructuredGrid>
<Piece  NumberOfPoints="1105" NumberOfCells="2048">
<Points>
<DataArray  type="Float64"  NumberOfComponents="3"  format="ascii">0 0 0  1 0 0  1 1 0  0 1 0  -1 1 0  -1 0 0  -1 -1 0  0 -1 0  1 -1 0  1 0 0  0.5 0.5 0  0 0.5 0  0.5 0 0  0.5 1 0  1 0.5 0  -0.5 1 0  -0.5 0.5 0  -1 0.5 0  -0.5 0 0  -0.5 -0.5 0  0 -0.5 0  -0.5 -1 0  -1 -0.5 0  0.5 -1 0  0.5 -0.5 0  1 -0.5 0  0.5 0 0  0.25 0.25 0  0.25 0 0  0 0.25 0  0.5 0.25 0  0.75 0 0  0.75 0.25 0  0.25 0.5 0  0 0.75 0  0.25 0.75 0  0.75 0.5 0  1 0.25 0  0.75 0.75 0  1 0.75 0  0.75 1 0  0.5 0.75 0  0.25 1 0  -0.25 0.5 0  -0.25 0.25 0  -0.25 0.75 0  -0.25 1 0  -0.5 0.75 0  -0.75 0.75 0  -0.75 1 0  -0.5 0.25 0  -0.25 0 0  -0.75 0.5 0  -1 0.75 0  -0.75 0.25 0  -0.75 0 0  -1 0.25 0  -0.25 -0.25 0  0 -0.25 0  -0.5 -0.25 0  -0.75 -0.25 0  -0.25 -0.5 0  0 -0.75 0  -0.25 -0.75 0  -0.75 -0.5 0  -1 -0.25 0  -0.75 -0.75 0  -1 -0.75 0  -0.75 -1 0  -0.5 -0.75 0  -0.25 -1 0  0.25 -0.5 0  0.25 -0.25 0  0.25 -0.75 0  0.25 -1 0  0.5 -0.75 0  0.75 -0.75 0  0.75 -1 0  0.5 -0.25 0  0.25 0 0  0.75 -0.5 0  1 -0.75 0  0.75 -0.25 0  0.75 0 0  1 -0.25 0  0.125 0.125 0  0 0.125 0  0.125 0 0  0.125 0.25 0  0 0.375 0  0.125 0.375 0  0.25 0.125 0  0.375 0 0  0.375 0.125 0  0.75 0.125 0  0.875 0.125 0  0.875 0 0  0.625 0.25 0  0.625 0.375 0  0.5 0.375 0  0.625 0.125 0  0.625 0 0  0.5 0.125 0  0.125 0.75 0  0.125 0.875 0  0 0.875 0  0.25 0.625 0  0.375 0.625 0  0.375 0.5 0  0.125 0.625 0  0 0.625 0  0.125 0.5 0  0.375 0.375 0  0.25 0.375 0  0.375 0.25 0  0.875 0.25 0  1 0.125 0  0.75 0.375 0  0.625 0.5 0  0.875 0.375 0  1 0.375 0  0.875 0.5 0  0.875 0.875 0  0.875 1 0  1 0.875 0  0.75 0.875 0  0.625 1 0  0.625 0.875 0  0.875 0.75 0  1 0.625 0  0.875 0.625 0  0.25 0.875 0  0.125 1 0  0.375 0.75 0  0.5 0.625 0  0.375 0.875 0  0.375 1 0  0.5 0.875 0  0.625 0.625 0  0.625 0.75 0  0.75 0.625 0  -0.125 0.25 0  -0.125 0.125 0  -0.125 0.375 0  -0.125 0.5 0  -0.25 0.375 0  -0.375 0.375 0  -0.375 0.5 0  -0.125 0.875 0  -0.125 1 0  -0.125 0.75 0  -0.125 0.625 0  -0.25 0.875 0  -0.375 1 0  -0.375 0.875 0  -0.75 0.875 0  -0.875 1 0  -0.875 0.875 0  -0.625 0.875 0  -0.625 1 0  -0.5 0.875 0  -0.625 0.75 0  -0.625 0.625 0  -0.5 0.625 0  -0.25 0.625 0  -0.375 0.75 0  -0.375 0.625 0  -0.25 0.125 0  -0.125 0 0  -0.375 0.25 0  -0.5 0.375 0  -0.375 0.125 0  -0.375 0 0  -0.5 0.125 0  -0.875 0.75 0  -1 0.875 0  -0.75 0.625 0  -0.625 0.5 0  -0.875 0.625 0  -1 0.625 0  -0.875 0.5 0  -0.875 0.125 0  -1 0.125 0  -0.875 0 0  -0.875 0.25 0  -1 0.375 0  -0.875 0.375 0  -0.75 0.125 0  -0.625 0 0  -0.625 0.125 0  -0.625 0.375 0  -0.75 0.375 0  -0.625 0.25 0  -0.125 -0.125 0  0 -0.125 0  -0.25 -0.125 0  -0.375 -0.125 0  -0.125 -0.25 0  0 -0.375 0  -0.125 -0.375 0  -0.75 -0.125 0  -0.875 -0.125 0  -0.625 -0.125 0  -0.5 -0.125 0  -0.625 -0.25 0  -0.625 -0.375 0  -0.5 -0.375 0  -0.125 -0.75 0  -0.125 -0.875 0  0 -0.875 0  -0.25 -0.625 0  -0.375 -0.625 0  -0.375 -0.5 0  -0.125 -0.625 0  0 -0.625 0  -0.125 -0.5 0  -0.375 -0.25 0  -0.375 -0.375 0  -0.25 -0.375 0  -0.875 -0.25 0  -1 -0.125 0  -0.75 -0.375 0  -0.625 -0.5 0  -0.875 -0.375 0  -1 -0.375 0  -0.875 -0.5 0  -0.875 -0.875 0  -0.875 -1 0  -1 -0.875 0  -0.75 -0.875 0  -0.625 -1 0  -0.625 -0.875 0  -0.875 -0.75 0  -1 -0.625 0  -0.875 -0.625 0  -0.25 -0.875 0  -0.125 -1 0  -0.375 -0.75 0  -0.5 -0.625 0  -0.375 -0.875 0  -0.375 -1 0  -0.5 -0.875 0  -0.625 -0.625 0  -0.625 -0.75 0  -0.75 -0.625 0  0.125 -0.25 0  0.125 -0.125 0  0.125 -0.375 0  0.125 -0.5 0  0.25 -0.375 0  0.375 -0.375 0  0.375 -0.5 0  0.125 -0.875 0  0.125 -1 0  0.125 -0.75 0  0.125 -0.625 0  0.25 -0.875 0  0.375 -1 0  0.375 -0.875 0  0.75 -0.875 0  0.875 -1 0  0.875 -0.875 0  0.625 -0.875 0  0.625 -1 0  0.5 -0.875 0  0.625 -0.75 0  0.625 -0.625 0  0.5 -0.625 0  0.25 -0.625 0  0.375 -0.75 0  0.375 -0.625 0  0.25 -0.125 0  0.125 0 0  0.375 -0.25 0  0.5 -0.375 0  0.375 -0.125 0  0.375 0 0  0.5 -0.125 0  0.875 -0.75 0  1 -0.875 0  0.75 -0.625 0  0.625 -0.5 0  0.875 -0.625 0  1 -0.625 0  0.875 -0.5 0  0.875 -0.125 0  1 -0.125 0  0.875 0 0  0.875 -0.25 0  1 -0.375 0  0.875 -0.375 0  0.75 -0.125 0  0.625 0 0  0.625 -0.125 0  0.625 -0.375 0  0.75 -0.375 0  0.625 -0.25 0  0.0625 0.0625 0  0.0625 0 0  0 0.0625 0  0.125 0.0625 0  0.1875 0 0  0.1875 0.0625 0  0.0625 0.125 0  0 0.1875 0  0.0625 0.1875 0  0.0625 0.375 0  0.0625 0.4375 0  0 0.4375 0  0.125 0.3125 0  0.1875 0.3125 0  0.1875 0.25 0  0.0625 0.3125 0  0 0.3125 0  0.0625 0.25 0  0.375 0.0625 0  0.4375 0.0625 0  0.4375 0 0  0.3125 0.125 0  0.3125 0.1875 0  0.25 0.1875 0  0.3125 0.0625 0  0.3125 0 0  0.25 0.0625 0  0.1875 0.1875 0  0.1875 0.125 0  0.125 0.1875 0  0.875 0.0625 0  0.9375 0 0  0.9375 0.0625 0  0.8125 0.0625 0  0.8125 0 0  0.75 0.0625 0  0.8125 0.125 0  0.8125 0.1875 0  0.75 0.1875 0  0.5625 0.375 0  0.5 0.4375 0  0.5625 0.4375 0  0.5625 0.3125 0  0.5 0.3125 0  0.5625 0.25 0  0.625 0.3125 0  0.6875 0.3125 0  0.6875 0.25 0  0.5625 0.0625 0  0.5 0.0625 0  0.5625 0 0  0.5625 0.125 0  0.5 0.1875 0  0.5625 0.1875 0  0.625 0.0625 0  0.6875 0 0  0.6875 0.0625 0  0.625 0.1875 0  0.6875 0.125 0  0.6875 0.1875 0  0.0625 0.875 0  0 0.9375 0  0.0625 0.9375 0  0.0625 0.8125 0  0 0.8125 0  0.0625 0.75 0  0.125 0.8125 0  0.1875 0.8125 0  0.1875 0.75 0  0.375 0.5625 0  0.4375 0.5 0  0.4375 0.5625 0  0.3125 0.5625 0  0.3125 0.5 0  0.25 0.5625 0  0.3125 0.625 0  0.3125 0.6875 0  0.25 0.6875 0  0.0625 0.5625 0  0.0625 0.5 0  0 0.5625 0  0.125 0.5625 0  0.1875 0.5 0  0.1875 0.5625 0  0.0625 0.625 0  0 0.6875 0  0.0625 0.6875 0  0.1875 0.625 0  0.125 0.6875 0  0.1875 0.6875 0  0.4375 0.4375 0  0.4375 0.375 0  0.4375 0.3125 0  0.375 0.4375 0  0.3125 0.4375 0  0.125 0.4375 0  0.1875 0.375 0  0.25 0.3125 0  0.1875 0.4375 0  0.25 0.4375 0  0.4375 0.125 0  0.375 0.1875 0  0.3125 0.25 0  0.4375 0.1875 0  0.4375 0.25 0  0.3125 0.3125 0  0.375 0.3125 0  0.3125 0.375 0  0.9375 0.125 0  1 0.0625 0  0.875 0.1875 0  0.8125 0.25 0  0.9375 0.1875 0  1 0.1875 0  0.9375 0.25 0  0.625 0.4375 0  0.5625 0.5 0  0.6875 0.375 0  0.75 0.3125 0  0.6875 0.4375 0  0.6875 0.5 0  0.75 0.4375 0  0.9375 0.4375 0  0.9375 0.5 0  1 0.4375 0  0.875 0.4375 0  0.8125 0.5 0  0.8125 0.4375 0  0.9375 0.375 0  1 0.3125 0  0.9375 0.3125 0  0.8125 0.3125 0  0.8125 0.375 0  0.875 0.3125 0  0.9375 0.9375 0  1 0.9375 0  0.9375 1 0  0.9375 0.875 0  1 0.8125 0  0.9375 0.8125 0  0.875 0.9375 0  0.8125 1 0  0.8125 0.9375 0  0.625 0.9375 0  0.5625 0.9375 0  0.5625 1 0  0.6875 0.875 0  0.6875 0.8125 0  0.75 0.8125 0  0.6875 0.9375 0  0.6875 1 0  0.75 0.9375 0  0.9375 0.625 0  0.9375 0.5625 0  1 0.5625 0  0.875 0.6875 0  0.8125 0.6875 0  0.8125 0.75 0  0.9375 0.6875 0  1 0.6875 0  0.9375 0.75 0  0.8125 0.8125 0  0.875 0.8125 0  0.8125 0.875 0  0.125 0.9375 0  0.0625 1 0  0.1875 0.875 0  0.25 0.8125 0  0.1875 0.9375 0  0.1875 1 0  0.25 0.9375 0  0.4375 0.625 0  0.5 0.5625 0  0.375 0.6875 0  0.3125 0.75 0  0.4375 0.6875 0  0.5 0.6875 0  0.4375 0.75 0  0.4375 0.9375 0  0.5 0.9375 0  0.4375 1 0  0.4375 0.875 0  0.5 0.8125 0  0.4375 0.8125 0  0.375 0.9375 0  0.3125 1 0  0.3125 0.9375 0  0.3125 0.8125 0  0.375 0.8125 0  0.3125 0.875 0  0.5625 0.5625 0  0.625 0.5625 0  0.6875 0.5625 0  0.5625 0.625 0  0.5625 0.6875 0  0.5625 0.875 0  0.625 0.8125 0  0.6875 0.75 0  0.5625 0.8125 0  0.5625 0.75 0  0.875 0.5625 0  0.8125 0.5625 0  0.75 0.5625 0  0.8125 0.625 0  0.75 0.6875 0  0.6875 0.625 0  0.6875 0.6875 0  0.625 0.6875 0  -0.0625 0.125 0  -0.0625 0.0625 0  -0.0625 0.1875 0  -0.0625 0.25 0  -0.125 0.1875 0  -0.1875 0.1875 0  -0.1875 0.25 0  -0.0625 0.4375 0  -0.0625 0.5 0  -0.0625 0.375 0  -0.0625 0.3125 0  -0.125 0.4375 0  -0.1875 0.5 0  -0.1875 0.4375 0  -0.375 0.4375 0  -0.4375 0.5 0  -0.4375 0.4375 0  -0.3125 0.4375 0  -0.3125 0.5 0  -0.25 0.4375 0  -0.3125 0.375 0  -0.3125 0.3125 0  -0.25 0.3125 0  -0.125 0.3125 0  -0.1875 0.375 0  -0.1875 0.3125 0  -0.0625 0.9375 0  -0.0625 1 0  -0.0625 0.875 0  -0.0625 0.8125 0  -0.125 0.9375 0  -0.1875 1 0  -0.1875 0.9375 0  -0.0625 0.625 0  -0.0625 0.5625 0  -0.0625 0.6875 0  -0.0625 0.75 0  -0.125 0.6875 0  -0.1875 0.6875 0  -0.1875 0.75 0  -0.375 0.9375 0  -0.4375 0.9375 0  -0.4375 1 0  -0.3125 0.875 0  -0.3125 0.8125 0  -0.25 0.8125 0  -0.3125 0.9375 0  -0.3125 1 0  -0.25 0.9375 0  -0.125 0.8125 0  -0.1875 0.8125 0  -0.1875 0.875 0  -0.875 0.9375 0  -0.9375 0.9375 0  -0.9375 1 0  -0.8125 0.875 0  -0.8125 0.8125 0  -0.75 0.8125 0  -0.8125 0.9375 0  -0.8125 1 0  -0.75 0.9375 0  -0.5625 0.9375 0  -0.5 0.9375 0  -0.5625 1 0  -0.5625 0.875 0  -0.5 0.8125 0  -0.5625 0.8125 0  -0.625 0.9375 0  -0.6875 1 0  -0.6875 0.9375 0  -0.5625 0.625 0  -0.5 0.5625 0  -0.5625 0.5625 0  -0.5625 0.6875 0  -0.5 0.6875 0  -0.5625 0.75 0  -0.625 0.6875 0  -0.6875 0.6875 0  -0.6875 0.75 0  -0.625 0.8125 0  -0.6875 0.8125 0  -0.6875 0.875 0  -0.125 0.5625 0  -0.1875 0.5625 0  -0.25 0.5625 0  -0.1875 0.625 0  -0.25 0.6875 0  -0.4375 0.875 0  -0.375 0.8125 0  -0.3125 0.75 0  -0.4375 0.8125 0  -0.4375 0.75 0  -0.4375 0.5625 0  -0.375 0.5625 0  -0.3125 0.5625 0  -0.4375 0.625 0  -0.4375 0.6875 0  -0.3125 0.625 0  -0.3125 0.6875 0  -0.375 0.6875 0  -0.125 0.0625 0  -0.0625 0 0  -0.1875 0.125 0  -0.25 0.1875 0  -0.1875 0.0625 0  -0.1875 0 0  -0.25 0.0625 0  -0.4375 0.375 0  -0.5 0.4375 0  -0.375 0.3125 0  -0.3125 0.25 0  -0.4375 0.3125 0  -0.5 0.3125 0  -0.4375 0.25 0  -0.4375 0.0625 0  -0.5 0.0625 0  -0.4375 0 0  -0.4375 0.125 0  -0.5 0.1875 0  -0.4375 0.1875 0  -0.375 0.0625 0  -0.3125 0 0  -0.3125 0.0625 0  -0.3125 0.1875 0  -0.375 0.1875 0  -0.3125 0.125 0  -0.9375 0.875 0  -1 0.9375 0  -0.875 0.8125 0  -0.8125 0.75 0  -0.9375 0.8125 0  -1 0.8125 0  -0.9375 0.75 0  -0.625 0.5625 0  -0.5625 0.5 0  -0.6875 0.625 0  -0.75 0.6875 0  -0.6875 0.5625 0  -0.6875 0.5 0  -0.75 0.5625 0  -0.9375 0.5625 0  -0.9375 0.5 0  -1 0.5625 0  -0.875 0.5625 0  -0.8125 0.5 0  -0.8125 0.5625 0  -0.9375 0.625 0  -1 0.6875 0  -0.9375 0.6875 0  -0.8125 0.6875 0  -0.8125 0.625 0  -0.875 0.6875 0  -0.9375 0.0625 0  -0.9375 0 0  -1 0.0625 0  -0.875 0.0625 0  
[...]
<PointData  Vectors="u"> 
<DataArray  type="Float64"  Name="u"  NumberOfComponents="3" format="ascii">-7.2002628419504600e-07 9.1921558872050640e-08 0.0000000000000000e+00  -9.1033872036734289e-08 3.7023913581514366e-08 0.0000000000000000e+00  -8.3746853043255767e-09 -4.0472271734902445e-08 0.0000000000000000e+00  -2.3279916983219673e-08 -1.4142135067041133e+00 0.0000000000000000e+00  1.0278944522413623e-07 -9.7550768513284089e-08 0.0000000000000000e+00  2.0000000580535642e+00 2.7626933229366680e-08 0.0000000000000000e+00  2.1177391346522139e-08 5.8362001320661409e-08 0.0000000000000000e+00  6.9179526652851414e-08 1.4142122600075022e+00 0.0000000000000000e+00  8.6376602259612030e-08 -3.4087206085621233e-08 0.0000000000000000e+00  -1.1618485882664248e-08 2.9384688908577366e-08 0.0000000000000000e+00  -3.6934186347339260e-01 6.7657220964316159e-02 0.0000000000000000e+00  -3.7500000736393507e-01 -1.2499987300116615e-01 0.0000000000000000e+00  -2.5361059062480998e-08 5.3033004764827596e-01 0.0000000000000000e+00  -2.2965119916215589e-09 -8.3383943330005705e-01 0.0000000000000000e+00  -3.6440121921879415e-01 1.5130069061675418e-07 0.0000000000000000e+00  -3.1450205287047557e-08 -1.3491805262154863e+00 0.0000000000000000e+00  2.7366033285215169e-01 -4.5467102830496248e-01 0.0000000000000000e+00  1.5436284624652361e+00 -2.9833873253811130e-08 0.0000000000000000e+00  1.7677675173832294e-01 -2.9276564473859746e-08 0.0000000000000000e+00  2.7366037286181627e-01 4.5467094566626576e-01 0.0000000000000000e+00  -3.7499992706946467e-01 1.2499998496427192e-01 0.0000000000000000e+00  1.9688378409072430e-10 1.3491805529046903e+00 0.0000000000000000e+00  1.5436280998069825e+00 -2.7483067331655764e-07 0.0000000000000000e+00  8.9793017270390067e-08 -8.3383941971662701e-01 0.0000000000000000e+00  3.6934189691362407e-01 6.7657013507106470e-02 0.0000000000000000e+00  3.6440120123309450e-01 -7.5981303526415993e-08 0.0000000000000000e+00  -2.6504539162329551e-09 5.3033005575610392e-01 0.0000000000000000e+00  -3.8949110196096404e-01 5.7614895391931931e-01 0.0000000000000000e+00  3.5390103410772973e-08 9.3749986472775737e-01 0.0000000000000000e+00  -6.6291198461722445e-01 4.8613601134508411e-01 0.0000000000000000e+00  -2.6907572126719387e-01 3.9321172801983340e-01 0.0000000000000000e+00  -1.8204295458793613e-08 2.5259073236129120e-01 0.0000000000000000e+00  -2.3722999200637979e-01 1.9651418237526944e-01 0.0000000000000000e+00  -3.9460636195841436e-01 3.1474539327596314e-02 0.0000000000000000e+00  -1.7860862662635577e-01 -7.3994985364636789e-01 0.0000000000000000e+00  -2.4858785470862288e-01 -5.4398273699581423e-01 0.0000000000000000e+00  -3.5959182818657132e-01 4.5022086958891296e-02 0.0000000000000000e+00  -2.3259235653541380e-01 1.6340711275328434e-08 0.0000000000000000e+00  -2.9420211373318766e-01 -1.7278824608432478e-01 0.0000000000000000e+00  -3.0935877724082744e-01 -1.7418711223660082e-07 0.0000000000000000e+00  8.3721489074373264e-08 -4.3750003475642874e-01 0.0000000000000000e+00  -2.7753389781012283e-01 -3.5163047704637668e-01 0.0000000000000000e+00  -1.3034181801063985e-08 -1.1715197087999165e+00 0.0000000000000000e+00  -1.6148009413506778e-01 -3.4905560294420085e-01 0.0000000000000000e+00  -4.2530656183513244e-01 2.5325949216971309e-02 0.0000000000000000e+00  -2.9325232759737630e-02 -8.7947652427269118e-01 0.0000000000000000e+00  -3.0434408376553054e-08 -1.5004547974391134e+00 0.0000000000000000e+00  2.1386326522222340e-01 -8.6016986853265054e-01 0.0000000000000000e+00  5.3856162825183906e-01 -5.8885282266499106e-01 0.0000000000000000e+00  -1.9341278461622799e-08 -8.7499996294204563e-01 0.0000000000000000e+00  2.2456430529907279e-01 -1.6484586004359666e-01 0.0000000000000000e+00  -6.8749959006146200e-01 1.0651494197655749e-07 0.0000000000000000e+00  8.5687267489476360e-01 -3.4747048050264884e-01 0.0000000000000000e+00  9.2807793099710123e-01 -6.0681066493336751e-08 0.0000000000000000e+00  1.0065380961809887e+00 -1.5504221219206471e-01 0.0000000000000000e+00  1.0464474635922423e+00 -2.2627273902866503e-08 0.0000000000000000e+00  1.8893714877082797e+00 -6.1064430576234704e-10 0.0000000000000000e+00  -4.2530654123859751e-01 -2.5325674551854513e-02 0.0000000000000000e+00  -6.6291253695656605e-01 -4.8613543435734541e-01 0.0000000000000000e+00  2.2456432878479329e-01 1.6484581870031209e-01 0.0000000000000000e+00  1.0065379466922229e+00 1.5504216614655603e-01 0.0000000000000000e+00  -1.6147908926901178e-01 3.4905517976011879e-01 0.0000000000000000e+00  -1.7860855598635655e-01 7.3994934380873700e-01 0.0000000000000000e+00  -2.9325156190850514e-02 8.7947648040449777e-01 0.0000000000000000e+00  8.5687236722604887e-01 3.4747014975533591e-01 0.0000000000000000e+00  1.8893713465089150e+00 4.9857962008065709e-08 0.0000000000000000e+00  5.3856140392179985e-01 5.8885287143863907e-01 0.0000000000000000e+00  9.2807640289109594e-01 2.9665800172408840e-07 0.0000000000000000e+00  -5.2488258223622528e-07 8.7500013016798095e-01 0.0000000000000000e+00  2.1386334619691730e-01 8.6016990454820008e-01 0.0000000000000000e+00  1.4823077360435476e-08 1.5004548088025806e+00 0.0000000000000000e+00  3.9460618016771110e-01 3.1475219223750323e-02 0.0000000000000000e+00  3.8949090214322146e-01 5.7614935231096209e-01 0.0000000000000000e+00  2.4858830497258605e-01 -5.4398272269795200e-01 0.0000000000000000e+00  4.9882228070230331e-07 -1.1715208863030613e+00 0.0000000000000000e+00  2.7753397342585245e-01 -3.5163036485633242e-01 0.0000000000000000e+00  2.9420214101618086e-01 -1.7278821728382823e-01 0.0000000000000000e+00  2.9430442082852539e-09 -4.3749996790621504e-01 0.0000000000000000e+00  2.6907571398648733e-01 3.9321175560210175e-01 0.0000000000000000e+00  -2.3009747835676076e-08 9.3749994124294911e-01 0.0000000000000000e+00  3.5959184955194989e-01 4.5021783333134745e-02 0.0000000000000000e+00  3.0935932990490167e-01 -2.0153754631991187e-09 0.0000000000000000e+00  2.3722995159253721e-01 1.9651418062735024e-01 0.0000000000000000e+00  -1.0700758688892952e-07 2.5259077631696281e-01 0.0000000000000000e+00  2.3259192231942885e-01 9.4731627735691897e-08 0.0000000000000000e+00  -4.8057585101007078e-01 1.0250226845411463e+00 0.0000000000000000e+00  -9.8437524541190935e-01 9.2187481535277394e-01 0.0000000000000000e+00  5.3501510117544149e-07 1.3921165701821445e+00 0.0000000000000000e+00  -5.2399065361033093e-01 6.0562826324738928e-01 0.0000000000000000e+00  -4.9616037137088598e-01 1.7140070709557703e-01 0.0000000000000000e+00  -4.7234815311333805e-01 2.7436383731116526e-01 0.0000000000000000e+00  -2.6030823404364367e-01 8.2096260073663552e-01 0.0000000000000000e+00  -3.3543163234383500e-08 7.0167668020732865e-01 0.0000000000000000e+00  -1.8211558256149318e-01 6.4243335825922776e-01 0.0000000000000000e+00  -1.2656450867900468e-01 2.3823890570605921e-01 0.0000000000000000e+00  -1.2350699804942006e-01 1.1848625413812031e-01 0.0000000000000000e+00  -6.4123345480408731e-08 1.2527872079424357e-01 0.0000000000000000e+00  -2.4765973680468945e-01 2.9459845307765509e-01 0.0000000000000000e+00  -3.2667351798859423e-01 1.9141701927451749e-01 0.0000000000000000e+00  -3.4374997150442310e-01 2.4609363209672605e-01 0.0000000000000000e+00  -1.3381760972541043e-01 3.6186603299212144e-01 0.0000000000000000e+00  -1.9256402025489865e-08 3.8540256776194565e-01 0.0000000000000000e+00  -1.4917109754205410e-01 4.9389187821234870e-01 0.0000000000000000e+00  -2.2126655284502053e-01 -6.4380150437269090e-01 0.0000000000000000e+00  -1.1648635219756653e-01 -9.6844197460632042e-01 0.0000000000000000e+00  -8.8585475747967893e-02 -1.0689306058547794e+00 0.0000000000000000e+00  -3.3533239087270389e-01 -2.5073248763492090e-01 0.0000000000000000e+00  -3.4335400866774146e-01 -1.8496490136974547e-01 0.0000000000000000e+00  -3.8117474028246129e-01 6.0767149735296656e-02 0.0000000000000000e+00  -3.1528520785571562e-01 -3.3227400464087220e-01 0.0000000000000000e+00  -2.7252079927240730e-01 -4.2624995867149962e-01 0.0000000000000000e+00  -3.9927846877920675e-01 -2.9616096418684075e-02 0.0000000000000000e+00  -3.7366560103442209e-01 2.8884450742786416e-01 0.0000000000000000e+00  -4.1925013044527676e-01 3.0631035594173378e-01 0.0000000000000000e+00  -3.1067120319300967e-01 4.9070457710342680e-01 0.0000000000000000e+00  -2.3305071075515921e-01 9.8548473433150430e-02 0.0000000000000000e+00  -1.2280834194570432e-01 5.3915274948685713e-08 0.0000000000000000e+00  -3.1836868773886123e-01 1.3076723460662171e-01 0.0000000000000000e+00  -3.6217326171658309e-01 6.0570699142084905e-02 0.0000000000000000e+00  -3.1578690083639938e-01 6.6624882227114463e-02 0.0000000000000000e+00  -3.1692301321203570e-01 4.0444223960263051e-08 0.0000000000000000e+00  -3.6065642334050207e-01 2.4227591559949108e-02 0.0000000000000000e+00  -1.8405118637975823e-01 -1.5179140475349839e-01 0.0000000000000000e+00  1.1588196461854989e-07 -2.2327662012749797e-01 0.0000000000000000e+00  -1.9005129578323834e-01 6.0533833059029112e-08 0.0000000000000000e+00  -1.7765916943750099e-01 -3.0005273784629399e-01 0.0000000000000000e+00  1.8480666609093549e-08 -6.4158108996942276e-01 0.0000000000000000e+00  -1.7052391875355227e-01 -4.4477094826228564e-01 0.0000000000000000e+00  -3.0172908396322518e-01 -8.6148831979574111e-02 0.0000000000000000e+00  -3.6485992638104497e-01 1.4192896516686730e-07 0.0000000000000000e+00  -3.5848844042780154e-01 -2.7131515712366262e-02 0.0000000000000000e+00  -1.3667300435126595e-01 -8.5053340766754026e-01 0.0000000000000000e+00  -1.8141053852019507e-08 -1.3079837397970770e+00 0.0000000000000000e+00  -2.6589359073251401e-01 -4.4594501675564341e-01 0.0000000000000000e+00  -3.4681107925541604e-01 -1.3311192181149029e-01 0.0000000000000000e+00  -1.5123386053381202e-01 -7.2159110637127433e-01 0.0000000000000000e+00  -8.4357986300843708e-09 -1.0117296163027856e+00 0.0000000000000000e+00  -1.6204004604577091e-01 -5.8561379662928270e-01 0.0000000000000000e+00  -3.4962682337098078e-01 -9.1595424983658580e-02 0.0000000000000000e+00  -2.8641546807701901e-01 -2.6090559121046714e-01 0.0000000000000000e+00  -3.5338445130082358e-01 -5.7096367697928294e-02 0.0000000000000000e+00  -6.3702634926259849e-01 2.3749765876929946e-01 0.0000000000000000e+00  -9.6902420928353872e-01 3.4538610902693778e-01 0.0000000000000000e+00  -4.3618924105307316e-01 1.6813591723899905e-02 0.0000000000000000e+00  -2.9919001072028339e-01 -2.4057582668298352e-01 0.0000000000000000e+00  -2.7471096543714696e-01 -1.3304436458525401e-01 0.0000000000000000e+00  -3.4822593538075305e-02 -2.3959813800761828e-01 0.0000000000000000e+00  3.3145593026166910e-02 -4.2536854566881999e-01 0.0000000000000000e+00  -5.1078529846445175e-02 -1.1431070744691214e+00 0.0000000000000000e+00  -2.7602318883437050e-08 -1.4816607205126822e+00 0.0000000000000000e+00  -1.1565410306109430e-01 -8.2279059529382137e-01 0.0000000000000000e+00  -1.9647066932717328e-01 -5.2152053199825577e-01 0.0000000000000000e+00  -2.6956728402092209e-03 -1.1801169086434273e+00 0.0000000000000000e+00  -3.1764060827020806e-08 -1.4599262998042881e+00 0.0000000000000000e+00  5.7012057376432161e-02 -1.1681811765633399e+00 0.0000000000000000e+00  2.9949203177416334e-01 -7.2676242665300261e-01 0.0000000000000000e+00  1.1498116742018991e-07 -4.9205001665817866e-01 0.0000000000000000e+00  3.9871707420011071e-01 -4.1207928550269601e-01 0.0000000000000000e+00  2.0889388284533675e-01 -9.5175033528322839e-01 0.0000000000000000e+00  -2.9720842312670646e-08 -1.1575711278603726e+00 0.0000000000000000e+00  1.2777720101084958e-01 -1.0956590400834658e+00 0.0000000000000000e+00  3.6716217776163756e-01 -7.6066649991470248e-01 0.0000000000000000e+00  4.7916265839055772e-01 -5.8604244117881843e-01 0.0000000000000000e+00  2.6115131106028633e-01 -6.4530214792875995e-01 0.0000000000000000e+00  -8.1292999068591415e-02 -6.0097624226124835e-01 0.0000000000000000e+00  8.0960749691160072e-02 -8.9618618266348238e-01 0.0000000000000000e+00  7.2649356819832533e-02 -6.4695095445860717e-01 0.0000000000000000e+00  -5.9617993310299144e-01 7.9927850613022253e-02 0.0000000000000000e+00  -1.3037275769547023e+00 7.7237115012246632e-07 0.0000000000000000e+00  -1.2251721763600076e-01 -1.0220449631188812e-01 0.0000000000000000e+00  2.5781251361737162e-01 -2.9296873072072233e-01 0.0000000000000000e+00  -2.0589387579509771e-01 -2.5567941967421574e-02 0.0000000000000000e+00  -2.4239732225068236e-01 -4.3633143892954720e-08 0.0000000000000000e+00  1.9105477026820683e-01 -7.0773209291704040e-02 0.0000000000000000e+00  7.2606792917857477e-01 -3.3739667805548024e-01 0.0000000000000000e+00  5.0581273110547098e-01 -1.4430993731885807e-07 0.0000000000000000e+00  7.2236073659248035e-01 -4.6214922906125289e-01 0.0000000000000000e+00  5.5042246044890886e-01 -4.2989436492310806e-01 0.0000000000000000e+00  9.8749003748712938e-01 -2.6828887166504201e-01 0.0000000000000000e+00  1.2721929987060956e+00 -4.6956229521463953e-08 0.0000000000000000e+00  1.1888397765454608e+00 -2.0493168648338927e-01 0.0000000000000000e+00  1.4930910097827705e+00 -4.6250298151232661e-02 0.0000000000000000e+00  1.9725766831023503e+00 1.3167918932202857e-08 0.0000000000000000e+00  1.5116965052510634e+00 8.7065690852102867e-09 0.0000000000000000e+00  1.4358869673936729e+00 -9.4736251847057043e-02 0.0000000000000000e+00  1.7477248794823899e+00 -1.4439400433911903e-08 0.0000000000000000e+00  1.3362711473565847e+00 -1.4725206003092975e-01 0.0000000000000000e+00  1.0370375977933413e+00 -7.4679359596489955e-02 0.0000000000000000e+00  6.0280925977337030e-01 -1.7904805877271141e-08 0.0000000000000000e+00  6.0372469697138675e-01 -8.4014650747675598e-02 0.0000000000000000e+00  5.8825404964150163e-01 -2.9415889563752662e-01 0.0000000000000000e+00  9.4903050536389566e-01 -2.4526324290522827e-01 0.0000000000000000e+00  6.0224976357761306e-01 -1.7963315071880423e-01 0.0000000000000000e+00  -9.6902489947639892e-01 -3.4538556339145415e-01 0.0000000000000000e+00  -9.8437469757721674e-01 -9.2187490997217214e-01 0.0000000000000000e+00  -5.9617962365456689e-01 -7.9927658203404653e-02 0.0000000000000000e+00  -2.0589385096129736e-01 2.5567867447179256e-02 0.0000000000000000e+00  -6.3702516680613763e-01 -2.3749710049433712e-01 0.0000000000000000e+00  -4.9616052101117381e-01 -1.7140086582017036e-01 0.0000000000000000e+00  -4.3618949011587338e-01 -1.6814036488173926e-02 0.0000000000000000e+00  1.0370375244038674e+00 7.4679315370483418e-02 0.0000000000000000e+00  1.4930909691300416e+00 4.6250316258834967e-02 0.0000000000000000e+00  6.0372468485799979e-01 8.4014617884747150e-02 0.0000000000000000e+00  1.9105478161875064e-01 7.0773156403904247e-02 0.0000000000000000e+00  6.0224973615726407e-01 1.7963312177640298e-01 0.0000000000000000e+00  5.8825399804524114e-01 2.9415883537112281e-01 0.0000000000000000e+00  2.5781254760429345e-01 2.9296870424087046e-01 0.0000000000000000e+00  -1.1565398336880409e-01 8.2278937764072879e-01 0.0000000000000000e+00  -5.1078507070647726e-02 1.1431064708682621e+00 0.0000000000000000e+00  -8.8585307389141318e-02 1.0689313195833825e+00 0.0000000000000000e+00  -8.1292800496594445e-02 6.0097572316011882e-01 0.0000000000000000e+00  7.2649423793079426e-02 6.4695085792429108e-01 0.0000000000000000e+00  3.3145661383599846e-02 4.2536859694520607e-01 0.0000000000000000e+00  -1.9647043221084398e-01 5.2152025092055654e-01 0.0000000000000000e+00  -2.7252074748238508e-01 4.2625030105499245e-01 0.0000000000000000e+00  -2.9918994145342731e-01 2.4057573022996731e-01 0.0000000000000000e+00  -1.2251724726926115e-01 1.0220444984263449e-01 0.0000000000000000e+00  -3.4822378465047772e-02 2.3959807823524237e-01 0.0000000000000000e+00  -2.7471097406247141e-01 1.3304451089444100e-01 0.0000000000000000e+00  1.4358868838790027e+00 9.4736267062892926e-02 0.0000000000000000e+00  1.9725766142169234e+00 4.2558079094337638e-08 0.0000000000000000e+00  9.4903027715160837e-01 2.4526314586316048e-01 0.0000000000000000e+00  5.5042242382145679e-01 4.2989418351604208e-01 0.0000000000000000e+00  1.3362710144194243e+00 1.4725202925235598e-01 0.0000000000000000e+00  1.7477246561222732e+00 -1.0421394523368251e-08 0.0000000000000000e+00  1.1888395573459716e+00 2.0493145870196894e-01 0.0000000000000000e+00  3.9871641007166631e-01 4.1207915105215787e-01 0.0000000000000000e+00  -4.9767250553325956e-07 4.9204992024667693e-01 0.0000000000000000e+00  5.0581194327365553e-01 -5.0999307992417518e-08 0.0000000000000000e+00  2.9949170380089651e-01 7.2676233912530885e-01 0.0000000000000000e+00  -1.2860478564518377e-07 1.1575711902309593e+00 0.0000000000000000e+00  2.0889381188848796e-01 9.5175024214488857e-01 0.0000000000000000e+00  7.2606767627958579e-01 3.3739672934864995e-01 0.0000000000000000e+00  1.2721922876604739e+00 -3.2264352381569099e-07 0.0000000000000000e+00  9.8748963786515020e-01 2.6828848865666427e-01 0.0000000000000000e+00  -2.6956613520079968e-03 1.1801168130948640e+00 0.0000000000000000e+00  1.6458233949236994e-08 1.4816606638306722e+00 0.0000000000000000e+00  8.0960852118178606e-02 8.9618621596107173e-01 0.0000000000000000e+00  2.6115145130594530e-01 6.4530207674249251e-01 0.0000000000000000e+00  5.7012071877370563e-02 1.1681811460022722e+00 0.0000000000000000e+00  1.8918669282355600e-08 1.4599263191285339e+00 0.0000000000000000e+00  1.2777720454660049e-01 1.0956589752419372e+00 0.0000000000000000e+00  4.7916270390810389e-01 5.8604226357061062e-01 0.0000000000000000e+00  3.6716222299426587e-01 7.6066654792465926e-01 0.0000000000000000e+00  7.2236055962499668e-01 4.6214892741053665e-01 0.0000000000000000e+00  5.2398961197777394e-01 6.0562873899020819e-01 0.0000000000000000e+00  4.8057646990307507e-01 1.0250222386023533e+00 0.0000000000000000e+00  4.7234799117015608e-01 2.7436412567404517e-01 0.0000000000000000e+00  3.9927855472269852e-01 -2.9616084852838176e-02 0.0000000000000000e+00  4.1925050015287746e-01 3.0631057073753182e-01 0.0000000000000000e+00  3.7366556715499921e-01 2.8884460168029152e-01 0.0000000000000000e+00  3.8117479829803436e-01 6.0767100368693247e-02 0.0000000000000000e+00  1.1648652528761540e-01 -9.6844322469751509e-01 0.0000000000000000e+00  -2.4030716400332150e-08 -1.3079837660760252e+00 0.0000000000000000e+00  2.2126663180891645e-01 -6.4380214506208988e-01 0.0000000000000000e+00  3.1528523159250571e-01 -3.3227434989417065e-01 0.0000000000000000e+00  1.3667345157134073e-01 -8.5053396390977931e-01 0.0000000000000000e+00  3.0612669975223672e-07 -1.0117298424533050e+00 0.0000000000000000e+00  1.5123408393413132e-01 -7.2159119956923479e-01 0.0000000000000000e+00  1.7765920433647078e-01 -3.0005282169954034e-01 0.0000000000000000e+00  7.0238342744769859e-08 -2.2327665500739893e-01 0.0000000000000000e+00  1.8405139290840611e-01 -1.5179148084885868e-01 0.0000000000000000e+00  1.7052393659306245e-01 -4.4477102903840648e-01 0.0000000000000000e+00  1.6932111538335096e-08 -6.4158104991725184e-01 0.0000000000000000e+00  1.6204010900108376e-01 -5.8561385667682697e-01 0.0000000000000000e+00  2.8641546614938690e-01 -2.6090553206807171e-01 0.0000000000000000e+00  3.4962681491462994e-01 -9.1595584483301046e-02 0.0000000000000000e+00  3.4681110169569057e-01 -1.3311197540779679e-01 0.0000000000000000e+00  3.3533288135388684e-01 -2.5073228004835674e-01 0.0000000000000000e+00  2.6589382737913314e-01 -4.4594484483601765e-01 0.0000000000000000e+00  3.4335436980622741e-01 -1.8496463845860775e-01 0.0000000000000000e+00  2.6030817054173672e-01 8.2096274024781146e-01 0.0000000000000000e+00  -3.9229493216735055e-07 1.3921167223945778e+00 0.0000000000000000e+00  3.1067120193191788e-01 4.9070463447474177e-01 0.0000000000000000e+00  3.4374996795016016e-01 2.4609350301781605e-01 0.0000000000000000e+00  1.8211557582442897e-01 6.4243329684911576e-01 0.0000000000000000e+00  -3.8943693225432569e-09 7.0167671077519189e-01 0.0000000000000000e+00  1.4917109760831865e-01 4.9389181211894417e-01 0.0000000000000000e+00  3.0172921222203741e-01 -8.6148765741944383e-02 0.0000000000000000e+00  1.9005165940025295e-01 -4.9337391993161486e-08 0.0000000000000000e+00  3.5338443712846979e-0