<?xml version="1.0"?>
<VTKFile type="UnstructuredGrid"  version="0.1"  >
<UnstructuredGrid>
<Piece  NumberOfPoints="27" NumberOfCells="32">
<Points>
<DataArray  type="Float32"  NumberOfComponents="3"  format="ascii">0 0 0  1 0 0  1 1 0  0 1 0  -1 1 0  -1 0 0  -1 -1 0  0 -1 0  1 -1 0  1 0 0  0.5 0.5 0  0 0.5 0  0.5 0 0  0.5 1 0  1 0.5 0  -0.5 1 0  -0.5 0.5 0  -1 0.5 0  -0.5 0 0  -0.5 -0.5 0  0 -0.5 0  -0.5 -1 0  -1 -0.5 0  0.5 -1 0  0.5 -0.5 0  1 -0.5 0  0.5 0 0  </DataArray>
</Points>
<Cells>
<DataArray  type="UInt32"  Name="connectivity"  format="ascii">0 11 12  1 10 12  3 10 11  10 11 12  1 10 14  2 13 14  3 10 13  10 13 14  0 11 16  3 11 15  4 15 16  11 15 16  0 16 18  4 16 17  5 17 18  16 17 18  0 18 20  5 18 19  7 19 20  18 19 20  5 19 22  6 21 22  7 19 21  19 21 22  0 20 24  7 20 23  8 23 24  20 23 24  0 24 26  8 24 25  9 25 26  24 25 26  </DataArray>
<DataArray  type="UInt32"  Name="offsets"  format="ascii">3 6 9 12 15 18 21 24 27 30 33 36 39 42 45 48 51 54 57 60 63 66 69 72 75 78 81 84 87 90 93 96 </DataArray>
<DataArray  type="UInt8"  Name="types"  format="ascii">5 5 5 5 5 5 5 5 5 5 5 5 5 5 5 5 5 5 5 5 5 5 5 5 5 5 5 5 5 5 5 5 </DataArray>
</Cells>
<PointData  Vectors="u"> 
<DataArray  type="Float32"  Name="u"  NumberOfComponents="3" format="ascii">-2.014120e+01 -2.121571e+00 0.000000e+00  0.000000e+00 0.000000e+00 0.000000e+00  0.000000e+00 0.000000e+00 0.000000e+00  0.000000e+00 5.567862e+00 0.000000e+00  0.000000e+00 0.000000e+00 0.000000e+00  -5.775196e+00 0.000000e+00 0.000000e+00  0.000000e+00 0.000000e+00 0.000000e+00  0.000000e+00 -3.103610e+00 0.000000e+00  0.000000e+00 0.000000e+00 0.000000e+00  0.000000e+00 0.000000e+00 0.000000e+00  -3.837868e+00 9.369852e+00 0.000000e+00  -1.436979e+01 1.010870e+01 0.000000e+00  0.000000e+00 2.028775e+01 0.000000e+00  0.000000e+00 5.563448e+00 0.000000e+00  -1.744441e+00 0.000000e+00 0.000000e+00  0.000000e+00 3.295646e-02 0.000000e+00  -6.526698e+00 -4.318600e-01 0.000000e+00  -4.639446e+00 0.000000e+00 0.000000e+00  -8.225489e+00 1.199526e+00 0.000000e+00  -6.156276e+00 -1.188689e+00 0.000000e+00  -1.072538e+01 -3.657540e+00 0.000000e+00  0.000000e+00 -9.951063e-01 0.000000e+00  -3.651042e+00 0.000000e+00 0.000000e+00  0.000000e+00 -8.746565e+00 0.000000e+00  -8.912882e+00 -1.304113e+01 0.000000e+00  -1.892572e+00 0.000000e+00 0.000000e+00  0.000000e+00 -1.825985e+01 0.000000e+00  </DataArray> 
</PointData> 
</Piece>
</UnstructuredGrid>
</VTKFile>