<?xml version="1.0"?>
<VTKFile type="UnstructuredGrid"  version="0.1"  >
<UnstructuredGrid>
<Piece  NumberOfPoints="1105" NumberOfCells="2048">
<Points>
<DataArray  type="Float32"  NumberOfComponents="3"  format="ascii">0 0 0  1 0 0  1 1 0  0 1 0  -1 1 0  -1 0 0  -1 -1 0  0 -1 0  1 -1 0  1 0 0  0.5 0.5 0  0 0.5 0  0.5 0 0  0.5 1 0  1 0.5 0  -0.5 1 0  -0.5 0.5 0  -1 0.5 0  -0.5 0 0  -0.5 -0.5 0  0 -0.5 0  -0.5 -1 0  -1 -0.5 0  0.5 -1 0  0.5 -0.5 0  1 -0.5 0  0.5 0 0  0.25 0.25 0  0.25 0 0  0 0.25 0  0.5 0.25 0  0.75 0 0  0.75 0.25 0  0.25 0.5 0  0 0.75 0  0.25 0.75 0  0.75 0.5 0  1 0.25 0  0.75 0.75 0  1 0.75 0  0.75 1 0  0.5 0.75 0  0.25 1 0  -0.25 0.5 0  -0.25 0.25 0  -0.25 0.75 0  -0.25 1 0  -0.5 0.75 0  -0.75 0.75 0  -0.75 1 0  -0.5 0.25 0  -0.25 0 0  -0.75 0.5 0  -1 0.75 0  -0.75 0.25 0  -0.75 0 0  -1 0.25 0  -0.25 -0.25 0  0 -0.25 0  -0.5 -0.25 0  -0.75 -0.25 0  -0.25 -0.5 0  0 -0.75 0  -0.25 -0.75 0  -0.75 -0.5 0  -1 -0.25 0  -0.75 -0.75 0  -1 -0.75 0  -0.75 -1 0  -0.5 -0.75 0  -0.25 -1 0  0.25 -0.5 0  0.25 -0.25 0  0.25 -0.75 0  0.25 -1 0  0.5 -0.75 0  0.75 -0.75 0  0.75 -1 0  0.5 -0.25 0  0.25 0 0  0.75 -0.5 0  1 -0.75 0  0.75 -0.25 0  0.75 0 0  1 -0.25 0  0.125 0.125 0  0 0.125 0  0.125 0 0  0.125 0.25 0  0 0.375 0  0.125 0.375 0  0.25 0.125 0  0.375 0 0  0.375 0.125 0  0.75 0.125 0  0.875 0.125 0  0.875 0 0  0.625 0.25 0  0.625 0.375 0  0.5 0.375 0  0.625 0.125 0  0.625 0 0  0.5 0.125 0  0.125 0.75 0  0.125 0.875 0  0 0.875 0  0.25 0.625 0  0.375 0.625 0  0.375 0.5 0  0.125 0.625 0  0 0.625 0  0.125 0.5 0  0.375 0.375 0  0.25 0.375 0  0.375 0.25 0  0.875 0.25 0  1 0.125 0  0.75 0.375 0  0.625 0.5 0  0.875 0.375 0  1 0.375 0  0.875 0.5 0  0.875 0.875 0  0.875 1 0  1 0.875 0  0.75 0.875 0  0.625 1 0  0.625 0.875 0  0.875 0.75 0  1 0.625 0  0.875 0.625 0  0.25 0.875 0  0.125 1 0  0.375 0.75 0  0.5 0.625 0  0.375 0.875 0  0.375 1 0  0.5 0.875 0  0.625 0.625 0  0.625 0.75 0  0.75 0.625 0  -0.125 0.25 0  -0.125 0.125 0  -0.125 0.375 0  -0.125 0.5 0  -0.25 0.375 0  -0.375 0.375 0  -0.375 0.5 0  -0.125 0.875 0  -0.125 1 0  -0.125 0.75 0  -0.125 0.625 0  -0.25 0.875 0  -0.375 1 0  -0.375 0.875 0  -0.75 0.875 0  -0.875 1 0  -0.875 0.875 0  -0.625 0.875 0  -0.625 1 0  -0.5 0.875 0  -0.625 0.75 0  -0.625 0.625 0  -0.5 0.625 0  -0.25 0.625 0  -0.375 0.75 0  -0.375 0.625 0  -0.25 0.125 0  -0.125 0 0  -0.375 0.25 0  -0.5 0.375 0  -0.375 0.125 0  -0.375 0 0  -0.5 0.125 0  -0.875 0.75 0  -1 0.875 0  -0.75 0.625 0  -0.625 0.5 0  -0.875 0.625 0  -1 0.625 0  -0.875 0.5 0  -0.875 0.125 0  -1 0.125 0  -0.875 0 0  -0.875 0.25 0  -1 0.375 0  -0.875 0.375 0  -0.75 0.125 0  -0.625 0 0  -0.625 0.125 0  -0.625 0.375 0  -0.75 0.375 0  -0.625 0.25 0  -0.125 -0.125 0  0 -0.125 0  -0.25 -0.125 0  -0.375 -0.125 0  -0.125 -0.25 0  0 -0.375 0  -0.125 -0.375 0  -0.75 -0.125 0  -0.875 -0.125 0  -0.625 -0.125 0  -0.5 -0.125 0  -0.625 -0.25 0  -0.625 -0.375 0  -0.5 -0.375 0  -0.125 -0.75 0  -0.125 -0.875 0  0 -0.875 0  -0.25 -0.625 0  -0.375 -0.625 0  -0.375 -0.5 0  -0.125 -0.625 0  0 -0.625 0  -0.125 -0.5 0  -0.375 -0.25 0  -0.375 -0.375 0  -0.25 -0.375 0  -0.875 -0.25 0  -1 -0.125 0  -0.75 -0.375 0  -0.625 -0.5 0  -0.875 -0.375 0  -1 -0.375 0  -0.875 -0.5 0  -0.875 -0.875 0  -0.875 -1 0  -1 -0.875 0  -0.75 -0.875 0  -0.625 -1 0  -0.625 -0.875 0  -0.875 -0.75 0  -1 -0.625 0  -0.875 -0.625 0  -0.25 -0.875 0  -0.125 -1 0  -0.375 -0.75 0  -0.5 -0.625 0  -0.375 -0.875 0  -0.375 -1 0  -0.5 -0.875 0  -0.625 -0.625 0  -0.625 -0.75 0  -0.75 -0.625 0  0.125 -0.25 0  0.125 -0.125 0  0.125 -0.375 0  0.125 -0.5 0  0.25 -0.375 0  0.375 -0.375 0  0.375 -0.5 0  0.125 -0.875 0  0.125 -1 0  0.125 -0.75 0  0.125 -0.625 0  0.25 -0.875 0  0.375 -1 0  0.375 -0.875 0  0.75 -0.875 0  0.875 -1 0  0.875 -0.875 0  0.625 -0.875 0  0.625 -1 0  0.5 -0.875 0  0.625 -0.75 0  0.625 -0.625 0  0.5 -0.625 0  0.25 -0.625 0  0.375 -0.75 0  0.375 -0.625 0  0.25 -0.125 0  0.125 0 0  0.375 -0.25 0  0.5 -0.375 0  0.375 -0.125 0  0.375 0 0  0.5 -0.125 0  0.875 -0.75 0  1 -0.875 0  0.75 -0.625 0  0.625 -0.5 0  0.875 -0.625 0  1 -0.625 0  0.875 -0.5 0  0.875 -0.125 0  1 -0.125 0  0.875 0 0  0.875 -0.25 0  1 -0.375 0  0.875 -0.375 0  0.75 -0.125 0  0.625 0 0  0.625 -0.125 0  0.625 -0.375 0  0.75 -0.375 0  0.625 -0.25 0  0.0625 0.0625 0  0.0625 0 0  0 0.0625 0  0.125 0.0625 0  0.1875 0 0  0.1875 0.0625 0  0.0625 0.125 0  0 0.1875 0  0.0625 0.1875 0  0.0625 0.375 0  0.0625 0.4375 0  0 0.4375 0  0.125 0.3125 0  0.1875 0.3125 0  0.1875 0.25 0  0.0625 0.3125 0  0 0.3125 0  0.0625 0.25 0  0.375 0.0625 0  0.4375 0.0625 0  0.4375 0 0  0.3125 0.125 0  0.3125 0.1875 0  0.25 0.1875 0  0.3125 0.0625 0  0.3125 0 0  0.25 0.0625 0  0.1875 0.1875 0  0.1875 0.125 0  0.125 0.1875 0  0.875 0.0625 0  0.9375 0 0  0.9375 0.0625 0  0.8125 0.0625 0  0.8125 0 0  0.75 0.0625 0  0.8125 0.125 0  0.8125 0.1875 0  0.75 0.1875 0  0.5625 0.375 0  0.5 0.4375 0  0.5625 0.4375 0  0.5625 0.3125 0  0.5 0.3125 0  0.5625 0.25 0  0.625 0.3125 0  0.6875 0.3125 0  0.6875 0.25 0  0.5625 0.0625 0  0.5 0.0625 0  0.5625 0 0  0.5625 0.125 0  0.5 0.1875 0  0.5625 0.1875 0  0.625 0.0625 0  0.6875 0 0  0.6875 0.0625 0  0.625 0.1875 0  0.6875 0.125 0  0.6875 0.1875 0  0.0625 0.875 0  0 0.9375 0  0.0625 0.9375 0  0.0625 0.8125 0  0 0.8125 0  0.0625 0.75 0  0.125 0.8125 0  0.1875 0.8125 0  0.1875 0.75 0  0.375 0.5625 0  0.4375 0.5 0  0.4375 0.5625 0  0.3125 0.5625 0  0.3125 0.5 0  0.25 0.5625 0  0.3125 0.625 0  0.3125 0.6875 0  0.25 0.6875 0  0.0625 0.5625 0  0.0625 0.5 0  0 0.5625 0  0.125 0.5625 0  0.1875 0.5 0  0.1875 0.5625 0  0.0625 0.625 0  0 0.6875 0  0.0625 0.6875 0  0.1875 0.625 0  0.125 0.6875 0  0.1875 0.6875 0  0.4375 0.4375 0  0.4375 0.375 0  0.4375 0.3125 0  0.375 0.4375 0  0.3125 0.4375 0  0.125 0.4375 0  0.1875 0.375 0  0.25 0.3125 0  0.1875 0.4375 0  0.25 0.4375 0  0.4375 0.125 0  0.375 0.1875 0  0.3125 0.25 0  0.4375 0.1875 0  0.4375 0.25 0  0.3125 0.3125 0  0.375 0.3125 0  0.3125 0.375 0  0.9375 0.125 0  1 0.0625 0  0.875 0.1875 0  0.8125 0.25 0  0.9375 0.1875 0  1 0.1875 0  0.9375 0.25 0  0.625 0.4375 0  0.5625 0.5 0  0.6875 0.375 0  0.75 0.3125 0  0.6875 0.4375 0  0.6875 0.5 0  0.75 0.4375 0  0.9375 0.4375 0  0.9375 0.5 0  1 0.4375 0  0.875 0.4375 0  0.8125 0.5 0  0.8125 0.4375 0  0.9375 0.375 0  1 0.3125 0  0.9375 0.3125 0  0.8125 0.3125 0  0.8125 0.375 0  0.875 0.3125 0  0.9375 0.9375 0  1 0.9375 0  0.9375 1 0  0.9375 0.875 0  1 0.8125 0  0.9375 0.8125 0  0.875 0.9375 0  0.8125 1 0  0.8125 0.9375 0  0.625 0.9375 0  0.5625 0.9375 0  0.5625 1 0  0.6875 0.875 0  0.6875 0.8125 0  0.75 0.8125 0  0.6875 0.9375 0  0.6875 1 0  0.75 0.9375 0  0.9375 0.625 0  0.9375 0.5625 0  1 0.5625 0  0.875 0.6875 0  0.8125 0.6875 0  0.8125 0.75 0  0.9375 0.6875 0  1 0.6875 0  0.9375 0.75 0  0.8125 0.8125 0  0.875 0.8125 0  0.8125 0.875 0  0.125 0.9375 0  0.0625 1 0  0.1875 0.875 0  0.25 0.8125 0  0.1875 0.9375 0  0.1875 1 0  0.25 0.9375 0  0.4375 0.625 0  0.5 0.5625 0  0.375 0.6875 0  0.3125 0.75 0  0.4375 0.6875 0  0.5 0.6875 0  0.4375 0.75 0  0.4375 0.9375 0  0.5 0.9375 0  0.4375 1 0  0.4375 0.875 0  0.5 0.8125 0  0.4375 0.8125 0  0.375 0.9375 0  0.3125 1 0  0.3125 0.9375 0  0.3125 0.8125 0  0.375 0.8125 0  0.3125 0.875 0  0.5625 0.5625 0  0.625 0.5625 0  0.6875 0.5625 0  0.5625 0.625 0  0.5625 0.6875 0  0.5625 0.875 0  0.625 0.8125 0  0.6875 0.75 0  0.5625 0.8125 0  0.5625 0.75 0  0.875 0.5625 0  0.8125 0.5625 0  0.75 0.5625 0  0.8125 0.625 0  0.75 0.6875 0  0.6875 0.625 0  0.6875 0.6875 0  0.625 0.6875 0  -0.0625 0.125 0  -0.0625 0.0625 0  -0.0625 0.1875 0  -0.0625 0.25 0  -0.125 0.1875 0  -0.1875 0.1875 0  -0.1875 0.25 0  -0.0625 0.4375 0  -0.0625 0.5 0  -0.0625 0.375 0  -0.0625 0.3125 0  -0.125 0.4375 0  -0.1875 0.5 0  -0.1875 0.4375 0  -0.375 0.4375 0  -0.4375 0.5 0  -0.4375 0.4375 0  -0.3125 0.4375 0  -0.3125 0.5 0  -0.25 0.4375 0  -0.3125 0.375 0  -0.3125 0.3125 0  -0.25 0.3125 0  -0.125 0.3125 0  -0.1875 0.375 0  -0.1875 0.3125 0  -0.0625 0.9375 0  -0.0625 1 0  -0.0625 0.875 0  -0.0625 0.8125 0  -0.125 0.9375 0  -0.1875 1 0  -0.1875 0.9375 0  -0.0625 0.625 0  -0.0625 0.5625 0  -0.0625 0.6875 0  -0.0625 0.75 0  -0.125 0.6875 0  -0.1875 0.6875 0  -0.1875 0.75 0  -0.375 0.9375 0  -0.4375 0.9375 0  -0.4375 1 0  -0.3125 0.875 0  -0.3125 0.8125 0  -0.25 0.8125 0  -0.3125 0.9375 0  -0.3125 1 0  -0.25 0.9375 0  -0.125 0.8125 0  -0.1875 0.8125 0  -0.1875 0.875 0  -0.875 0.9375 0  -0.9375 0.9375 0  -0.9375 1 0  -0.8125 0.875 0  -0.8125 0.8125 0  -0.75 0.8125 0  -0.8125 0.9375 0  -0.8125 1 0  -0.75 0.9375 0  -0.5625 0.9375 0  -0.5 0.9375 0  -0.5625 1 0  -0.5625 0.875 0  -0.5 0.8125 0  -0.5625 0.8125 0  -0.625 0.9375 0  -0.6875 1 0  -0.6875 0.9375 0  -0.5625 0.625 0  -0.5 0.5625 0  -0.5625 0.5625 0  -0.5625 0.6875 0  -0.5 0.6875 0  -0.5625 0.75 0  -0.625 0.6875 0  -0.6875 0.6875 0  -0.6875 0.75 0  -0.625 0.8125 0  -0.6875 0.8125 0  -0.6875 0.875 0  -0.125 0.5625 0  -0.1875 0.5625 0  -0.25 0.5625 0  -0.1875 0.625 0  -0.25 0.6875 0  -0.4375 0.875 0  -0.375 0.8125 0  -0.3125 0.75 0  -0.4375 0.8125 0  -0.4375 0.75 0  -0.4375 0.5625 0  -0.375 0.5625 0  -0.3125 0.5625 0  -0.4375 0.625 0  -0.4375 0.6875 0  -0.3125 0.625 0  -0.3125 0.6875 0  -0.375 0.6875 0  -0.125 0.0625 0  -0.0625 0 0  -0.1875 0.125 0  -0.25 0.1875 0  -0.1875 0.0625 0  -0.1875 0 0  -0.25 0.0625 0  -0.4375 0.375 0  -0.5 0.4375 0  -0.375 0.3125 0  -0.3125 0.25 0  -0.4375 0.3125 0  -0.5 0.3125 0  -0.4375 0.25 0  -0.4375 0.0625 0  -0.5 0.0625 0  -0.4375 0 0  -0.4375 0.125 0  -0.5 0.1875 0  -0.4375 0.1875 0  -0.375 0.0625 0  -0.3125 0 0  -0.3125 0.0625 0  -0.3125 0.1875 0  -0.375 0.1875 0  -0.3125 0.125 0  -0.9375 0.875 0  -1 0.9375 0  -0.875 0.8125 0  -0.8125 0.75 0  -0.9375 0.8125 0  -1 0.8125 0  -0.9375 0.75 0  -0.625 0.5625 0  -0.5625 0.5 0  -0.6875 0.625 0  -0.75 0.6875 0  -0.6875 0.5625 0  -0.6875 0.5 0  -0.75 0.5625 0  -0.9375 0.5625 0  -0.9375 0.5 0  -1 0.5625 0  -0.875 0.5625 0  -0.8125 0.5 0  -0.8125 0.5625 0  -0.9375 0.625 0  -1 0.6875 0  -0.9375 0.6875 0  -0.8125 0.6875 0  -0.8125 0.625 0  -0.875 0.6875 0  -0.9375 0.0625 0  -0.9375 0 0  -1 0.0625 0  -0.875 0.0625 0  
[...]
<PointData  Vectors="u"> 
<DataArray  type="Float32"  Name="u"  NumberOfComponents="3" format="ascii">-2.984779e+01 -3.881800e+00 0.000000e+00  0.000000e+00 0.000000e+00 0.000000e+00  0.000000e+00 0.000000e+00 0.000000e+00  0.000000e+00 2.424754e+00 0.000000e+00  0.000000e+00 0.000000e+00 0.000000e+00  -3.474246e+00 0.000000e+00 0.000000e+00  0.000000e+00 0.000000e+00 0.000000e+00  0.000000e+00 -2.845455e+00 0.000000e+00  0.000000e+00 0.000000e+00 0.000000e+00  0.000000e+00 0.000000e+00 0.000000e+00  -1.788379e+00 4.039785e+00 0.000000e+00  -4.406432e+00 4.660653e+00 0.000000e+00  0.000000e+00 6.326009e+00 0.000000e+00  0.000000e+00 2.210363e+00 0.000000e+00  -9.874705e-01 0.000000e+00 0.000000e+00  0.000000e+00 8.645175e-01 0.000000e+00  -3.931528e+00 1.511882e+00 0.000000e+00  -2.236884e+00 0.000000e+00 0.000000e+00  -6.631272e+00 6.008220e-02 0.000000e+00  -4.093190e+00 -1.507670e+00 0.000000e+00  -5.210657e+00 -4.493970e+00 0.000000e+00  0.000000e+00 -9.444109e-01 0.000000e+00  -2.226202e+00 0.000000e+00 0.000000e+00  0.000000e+00 -3.529693e+00 0.000000e+00  -1.518736e+00 -3.883125e+00 0.000000e+00  -4.700841e-01 0.000000e+00 0.000000e+00  0.000000e+00 -5.471093e+00 0.000000e+00  -3.592755e+00 7.991177e+00 0.000000e+00  0.000000e+00 1.153576e+01 0.000000e+00  -8.116701e+00 7.103661e+00 0.000000e+00  -1.530599e+00 5.417011e+00 0.000000e+00  0.000000e+00 3.030455e+00 0.000000e+00  -8.566359e-01 2.692252e+00 0.000000e+00  -3.019665e+00 5.151111e+00 0.000000e+00  -2.081694e+00 3.302143e+00 0.000000e+00  -1.622317e+00 3.574405e+00 0.000000e+00  -1.162499e+00 2.154056e+00 0.000000e+00  -7.035882e-01 0.000000e+00 0.000000e+00  -8.205155e-01 1.631842e+00 0.000000e+00  -7.181764e-01 0.000000e+00 0.000000e+00  0.000000e+00 1.213015e+00 0.000000e+00  -1.127875e+00 2.941478e+00 0.000000e+00  0.000000e+00 2.654186e+00 0.000000e+00  -4.649104e+00 2.977279e+00 0.000000e+00  -7.667676e+00 2.872558e+00 0.000000e+00  -2.187031e+00 2.358659e+00 0.000000e+00  0.000000e+00 1.700388e+00 0.000000e+00  -1.922138e+00 1.294284e+00 0.000000e+00  -1.494008e+00 4.683441e-01 0.000000e+00  0.000000e+00 2.461849e-01 0.000000e+00  -5.758831e+00 1.169317e+00 0.000000e+00  -9.958337e+00 1.376188e-01 0.000000e+00  -3.012406e+00 5.608467e-01 0.000000e+00  -1.108141e+00 0.000000e+00 0.000000e+00  -4.227608e+00 4.093732e-01 0.000000e+00  -4.729932e+00 2.259199e-02 0.000000e+00  -3.127936e+00 0.000000e+00 0.000000e+00  -7.871668e+00 -2.671886e+00 0.000000e+00  -8.754037e+00 -6.829000e+00 0.000000e+00  -5.867162e+00 -1.081186e+00 0.000000e+00  -4.289915e+00 -3.774496e-01 0.000000e+00  -4.975792e+00 -2.951132e+00 0.000000e+00  -2.753424e+00 -3.324770e+00 0.000000e+00  -2.446898e+00 -2.553547e+00 0.000000e+00  -3.102187e+00 -5.626338e-01 0.000000e+00  -3.131987e+00 0.000000e+00 0.000000e+00  -1.558846e+00 -5.071175e-01 0.000000e+00  -1.054695e+00 0.000000e+00 0.000000e+00  0.000000e+00 -2.475819e-01 0.000000e+00  -2.042978e+00 -1.386191e+00 0.000000e+00  0.000000e+00 -1.958899e+00 0.000000e+00  -3.134445e+00 -4.982845e+00 0.000000e+00  -3.660008e+00 -7.430970e+00 0.000000e+00  -1.723825e+00 -4.051844e+00 0.000000e+00  0.000000e+00 -4.140928e+00 0.000000e+00  -8.883432e-01 -3.357331e+00 0.000000e+00  -4.169064e-01 -1.868973e+00 0.000000e+00  0.000000e+00 -2.020962e+00 0.000000e+00  -1.353192e+00 -4.924829e+00 0.000000e+00  0.000000e+00 -1.017135e+01 0.000000e+00  -7.088288e-01 -2.061697e+00 0.000000e+00  -2.786017e-01 0.000000e+00 0.000000e+00  -5.756901e-01 -2.411590e+00 0.000000e+00  0.000000e+00 -2.502442e+00 0.000000e+00  -3.655144e-01 0.000000e+00 0.000000e+00  -5.899391e+00 1.245058e+01 0.000000e+00  -1.368513e+01 9.808831e+00 0.000000e+00  0.000000e+00 1.795594e+01 0.000000e+00  -5.749492e+00 8.512184e+00 0.000000e+00  -5.891193e+00 5.652268e+00 0.000000e+00  -4.774314e+00 6.429106e+00 0.000000e+00  -2.671422e+00 1.000991e+01 0.000000e+00  0.000000e+00 8.436470e+00 0.000000e+00  -1.449192e+00 7.810633e+00 0.000000e+00  -4.724837e-01 2.877744e+00 0.000000e+00  -3.957530e-01 1.430654e+00 0.000000e+00  0.000000e+00 1.547213e+00 0.000000e+00  -1.100909e+00 4.048312e+00 0.000000e+00  -1.365397e+00 3.612179e+00 0.000000e+00  -1.811070e+00 4.719936e+00 0.000000e+00  -6.221642e-01 4.377064e+00 0.000000e+00  0.000000e+00 4.593856e+00 0.000000e+00  -9.011286e-01 5.986748e+00 0.000000e+00  -1.879193e+00 3.550414e+00 0.000000e+00  -9.420233e-01 3.021547e+00 0.000000e+00  -1.029785e+00 2.810183e+00 0.000000e+00  -2.363500e+00 4.256144e+00 0.000000e+00  -1.915836e+00 3.974121e+00 0.000000e+00  -2.327467e+00 4.742335e+00 0.000000e+00  -2.819716e+00 4.233669e+00 0.000000e+00  -3.186254e+00 3.906041e+00 0.000000e+00  -3.779087e+00 5.140062e+00 0.000000e+00  -2.502446e+00 5.687096e+00 0.000000e+00  -3.507711e+00 6.353978e+00 0.000000e+00  -2.279613e+00 6.777251e+00 0.000000e+00  -7.305741e-01 1.344847e+00 0.000000e+00  -3.845124e-01 0.000000e+00 0.000000e+00  -1.094518e+00 2.436409e+00 0.000000e+00  -1.407772e+00 3.152551e+00 0.000000e+00  -9.505223e-01 1.226031e+00 0.000000e+00  -9.125245e-01 0.000000e+00 0.000000e+00  -1.028225e+00 1.091924e+00 0.000000e+00  -4.202110e-01 7.264943e-01 0.000000e+00  0.000000e+00 5.884896e-01 0.000000e+00  -3.923000e-01 0.000000e+00 0.000000e+00  -4.562052e-01 1.422116e+00 0.000000e+00  0.000000e+00 1.765377e+00 0.000000e+00  -5.168232e-01 2.040704e+00 0.000000e+00  -7.489491e-01 8.349252e-01 0.000000e+00  -9.207551e-01 0.000000e+00 0.000000e+00  -9.579241e-01 9.581340e-01 0.000000e+00  -8.287066e-01 3.051856e+00 0.000000e+00  0.000000e+00 2.620040e+00 0.000000e+00  -1.359566e+00 3.363643e+00 0.000000e+00  -1.539043e+00 3.440899e+00 0.000000e+00  -7.100220e-01 2.888140e+00 0.000000e+00  0.000000e+00 2.514750e+00 0.000000e+00  -6.027160e-01 2.541694e+00 0.000000e+00  -1.255571e+00 2.722804e+00 0.000000e+00  -9.463704e-01 2.348934e+00 0.000000e+00  -1.064697e+00 1.879078e+00 0.000000e+00  -8.441622e+00 4.611078e+00 0.000000e+00  -1.134038e+01 3.734994e+00 0.000000e+00  -6.303466e+00 4.348375e+00 0.000000e+00  -4.703646e+00 3.858456e+00 0.000000e+00  -6.077954e+00 3.108509e+00 0.000000e+00  -5.537777e+00 2.146005e+00 0.000000e+00  -4.351922e+00 2.177491e+00 0.000000e+00  -1.075386e+00 2.455880e+00 0.000000e+00  0.000000e+00 2.102065e+00 0.000000e+00  -2.189084e+00 2.879931e+00 0.000000e+00  -3.376347e+00 3.351910e+00 0.000000e+00  -1.072135e+00 2.013268e+00 0.000000e+00  0.000000e+00 1.272186e+00 0.000000e+00  -1.024192e+00 1.539723e+00 0.000000e+00  -7.270895e-01 3.589417e-01 0.000000e+00  0.000000e+00 7.637302e-02 0.000000e+00  -6.131601e-01 1.266540e-01 0.000000e+00  -8.398015e-01 6.828344e-01 0.000000e+00  0.000000e+00 5.140233e-01 0.000000e+00  -9.425228e-01 1.084254e+00 0.000000e+00  -1.716137e+00 8.404427e-01 0.000000e+00  -2.603294e+00 9.464955e-01 0.000000e+00  -2.925266e+00 1.448432e+00 0.000000e+00  -3.367452e+00 2.694597e+00 0.000000e+00  -2.088775e+00 1.811743e+00 0.000000e+00  -3.197361e+00 2.039655e+00 0.000000e+00  -9.206509e+00 1.907787e+00 0.000000e+00  -1.329901e+01 3.413588e-01 0.000000e+00  -6.685829e+00 1.828480e+00 0.000000e+00  -4.901282e+00 1.436090e+00 0.000000e+00  -7.608153e+00 1.121445e+00 0.000000e+00  -8.001008e+00 8.917542e-02 0.000000e+00  -6.381758e+00 6.907963e-01 0.000000e+00  -1.272379e+00 1.861987e-01 0.000000e+00  -5.551926e-01 0.000000e+00 0.000000e+00  -2.267866e+00 5.397083e-01 0.000000e+00  -3.469557e+00 9.788603e-01 0.000000e+00  -1.941999e+00 2.252909e-01 0.000000e+00  -1.681586e+00 0.000000e+00 0.000000e+00  -2.584907e+00 2.391619e-01 0.000000e+00  -3.921667e+00 1.013464e-01 0.000000e+00  -3.384139e+00 0.000000e+00 0.000000e+00  -4.036427e+00 9.549929e-03 0.000000e+00  -3.618482e+00 1.761356e-01 0.000000e+00  -2.732925e+00 0.000000e+00 0.000000e+00  -3.158739e+00 2.233460e-01 0.000000e+00  -4.591281e+00 2.359385e-01 0.000000e+00  -5.577972e+00 3.880195e-02 0.000000e+00  -5.399362e+00 4.207962e-01 0.000000e+00  -4.269427e+00 9.117782e-01 0.000000e+00  -3.683120e+00 5.196567e-01 0.000000e+00  -4.938964e+00 7.250439e-01 0.000000e+00  -1.146883e+01 -3.370963e+00 0.000000e+00  -1.347894e+01 -8.711629e+00 0.000000e+00  -9.310079e+00 -1.673733e+00 0.000000e+00  -7.686125e+00 -9.564856e-01 0.000000e+00  -8.725096e+00 -4.287217e+00 0.000000e+00  -6.654241e+00 -5.430357e+00 0.000000e+00  -6.713421e+00 -4.151908e+00 0.000000e+00  -4.624817e+00 -1.941713e-01 0.000000e+00  -3.949550e+00 -8.382330e-02 0.000000e+00  -5.442456e+00 -3.487926e-01 0.000000e+00  -6.439450e+00 -5.790447e-01 0.000000e+00  -5.019355e+00 -6.691243e-01 0.000000e+00  -4.376068e+00 -8.807097e-01 0.000000e+00  -5.046451e+00 -1.384942e+00 0.000000e+00  -2.584432e+00 -3.149187e+00 0.000000e+00  -1.312112e+00 -2.868914e+00 0.000000e+00  -1.465192e+00 -2.963890e+00 0.000000e+00  -3.686937e+00 -2.780845e+00 0.000000e+00  -3.417173e+00 -2.103842e+00 0.000000e+00  -4.580279e+00 -2.165666e+00 0.000000e+00  -3.844448e+00 -3.457079e+00 0.000000e+00  -3.966265e+00 -3.822154e+00 0.000000e+00  -5.173063e+00 -3.804972e+00 0.000000e+00  -6.834262e+00 -1.695314e+00 0.000000e+00  -5.740166e+00 -2.065024e+00 0.000000e+00  -6.363853e+00 -2.981319e+00 0.000000e+00  -3.670105e+00 -1.631689e-01 0.000000e+00  -3.387452e+00 0.000000e+00 0.000000e+00  -3.765225e+00 -5.028647e-01 0.000000e+00  -3.587097e+00 -9.786036e-01 0.000000e+00  -3.226363e+00 -2.174038e-01 0.000000e+00  -2.732866e+00 0.000000e+00 0.000000e+00  -2.658223e+00 -2.418738e-01 0.000000e+00  -6.399004e-01 -1.540346e-01 0.000000e+00  0.000000e+00 -5.726285e-02 0.000000e+00  -4.703127e-01 0.000000e+00 0.000000e+00  -7.630997e-01 -4.093769e-01 0.000000e+00  0.000000e+00 -5.472932e-01 0.000000e+00  -8.877728e-01 -7.634739e-01 0.000000e+00  -1.323304e+00 -2.066779e-01 0.000000e+00  -1.653019e+00 0.000000e+00 0.000000e+00  -2.009552e+00 -2.371802e-01 0.000000e+00  -1.220328e+00 -2.290756e+00 0.000000e+00  0.000000e+00 -2.532911e+00 0.000000e+00  -2.263763e+00 -1.946515e+00 0.000000e+00  -3.078954e+00 -1.494671e+00 0.000000e+00  -1.122050e+00 -1.724794e+00 0.000000e+00  0.000000e+00 -1.422218e+00 0.000000e+00  -1.009634e+00 -1.207410e+00 0.000000e+00  -2.713955e+00 -9.787856e-01 0.000000e+00  -1.802463e+00 -9.017773e-01 0.000000e+00  -2.351675e+00 -5.609985e-01 0.000000e+00  -6.089464e+00 -7.994461e+00 0.000000e+00  -5.858370e+00 -1.151442e+01 0.000000e+00  -5.175817e+00 -6.083646e+00 0.000000e+00  -4.226867e+00 -4.999057e+00 0.000000e+00  -3.605199e+00 -5.957658e+00 0.000000e+00  -2.403263e+00 -5.296391e+00 0.000000e+00  -2.217305e+00 -4.571511e+00 0.000000e+00  -1.213120e+00 -3.810369e+00 0.000000e+00  0.000000e+00 -3.819095e+00 0.000000e+00  -2.282853e+00 -3.963097e+00 0.000000e+00  -3.274538e+00 -4.342889e+00 0.000000e+00  -8.881526e-01 -3.974925e+00 0.000000e+00  0.000000e+00 -3.976944e+00 0.000000e+00  -6.422910e-01 -3.792088e+00 0.000000e+00  -2.011123e-01 -1.885348e+00 0.000000e+00  0.000000e+00 -1.071625e+00 0.000000e+00  -1.419988e-01 -9.726922e-01 0.000000e+00  -3.025357e-01 -2.694240e+00 0.000000e+00  0.000000e+00 -2.859093e+00 0.000000e+00  -4.486268e-01 -3.347810e+00 0.000000e+00  -6.090505e-01 -2.685373e+00 0.000000e+00  -8.679481e-01 -2.799849e+00 0.000000e+00  -1.265045e+00 -3.538498e+00 0.000000e+00  -2.482145e+00 -4.376679e+00 0.000000e+00  -1.260355e+00 -3.830071e+00 0.000000e+00  -1.804849e+00 -4.086819e+00 0.000000e+00  -2.667433e+00 -9.336474e+00 0.000000e+00  0.000000e+00 -1.473233e+01 0.000000e+00  -2.197846e+00 -6.228341e+00 0.000000e+00  -1.576091e+00 -4.367856e+00 0.000000e+00  -1.386902e+00 -7.153598e+00 0.000000e+00  0.000000e+00 -7.400288e+00 0.000000e+00  -7.982902e-01 -5.402568e+00 0.000000e+00  -3.040906e-01 -9.590904e-01 0.000000e+00  -1.434676e-01 0.000000e+00 0.000000e+00  -6.004225e-01 -1.932246e+00 0.000000e+00  -1.027731e+00 -3.023060e+00 0.000000e+00  -4.458002e-01 -9.857993e-01 0.000000e+00  -4.006473e-01 0.000000e+00 0.000000e+00  -5.294990e-01 -1.044214e+00 0.000000e+00  -2.412867e-01 -1.254687e+00 0.000000e+00  -1.994409e-01 0.000000e+00 0.000000e+00  0.000000e+00 -1.183162e+00 0.000000e+00  -4.274319e-01 -1.199684e+00 0.000000e+00  -4.610428e-01 0.000000e+00 0.000000e+00  -5.271456e-01 -1.121616e+00 0.000000e+00  -3.240844e-01 -2.545286e+00 0.000000e+00  0.000000e+00 -3.901369e+00 0.000000e+00  -4.911565e-01 -3.905883e+00 0.000000e+00  -1.038193e+00 -3.325179e+00 0.000000e+00  -7.069364e-01 -2.233866e+00 0.000000e+00  -8.602811e-01 -3.649384e+00 0.000000e+00  -8.984882e+00 1.908611e+01 0.000000e+00  0.000000e+00 3.137879e+01 0.000000e+00  -2.509815e+01 1.636294e+01 0.000000e+00  -4.367051e+00 1.530886e+01 0.000000e+00  0.000000e+00 1.407976e+01 0.000000e+00  -2.454838e+00 1.274901e+01 0.000000e+00  -9.259161e+00 1.290191e+01 0.000000e+00  -1.007550e+01 8.223330e+00 0.000000e+00  -8.122530e+00 9.856175e+00 0.000000e+00  -5.394401e+00 6.146833e+00 0.000000e+00  -4.729322e+00 5.492333e+00 0.000000e+00  -5.099578e+00 5.118113e+00 0.000000e+00  -5.278502e+00 7.326433e+00 0.000000e+00  -4.404334e+00 7.342662e+00 0.000000e+00  -4.560206e+00 8.402431e+00 0.000000e+00  -6.151651e+00 6.981641e+00 0.000000e+00  -6.848712e+00 6.294864e+00 0.000000e+00  -7.047863e+00 8.124209e+00 0.000000e+00  -7.853982e-01 8.135677e+00 0.000000e+00  -6.002313e-01 7.083029e+00 0.000000e+00  0.000000e+00 7.311652e+00 0.000000e+00  -1.928519e+00 8.853235e+00 0.000000e+00  -2.513819e+00 8.156309e+00 0.000000e+00  -3.315390e+00 8.980389e+00 0.000000e+00  -1.073689e+00 9.357139e+00 0.000000e+00  0.000000e+00 9.788215e+00 0.000000e+00  -1.557175e+00 1.084281e+01 0.000000e+00  -4.463429e+00 9.712590e+00 0.000000e+00  -3.876779e+00 1.126459e+01 0.000000e+00  -6.071508e+00 1.014662e+01 0.000000e+00  -2.002211e-01 1.445102e+00 0.000000e+00  0.000000e+00 8.333180e-01 0.000000e+00  -1.812592e-01 7.311769e-01 0.000000e+00  -2.186249e-01 2.175631e+00 0.000000e+00  0.000000e+00 2.282078e+00 0.000000e+00  -2.432675e-01 2.916633e+00 0.000000e+00  -4.269296e-01 2.150578e+00 0.000000e+00  -6.171073e-01 2.092001e+00 0.000000e+00  -6.799453e-01 2.796098e+00 0.000000e+00  -1.562420e+00 4.177748e+00 0.000000e+00  -1.832789e+00 4.372199e+00 0.000000e+00  -1.600646e+00 3.892175e+00 0.000000e+00  -1.458915e+00 4.461619e+00 0.000000e+00  -1.713228e+00 5.073242e+00 0.000000e+00  -1.286271e+00 4.731295e+00 0.000000e+00  -1.261654e+00 3.837833e+00 0.000000e+00  -1.110218e+00 3.206523e+00 0.000000e+00  -9.609111e-01 3.368775e+00 0.000000e+00  -3.867190e-01 5.273433e+00 0.000000e+00  -4.748314e-01 6.141092e+00 0.000000e+00  0.000000e+00 5.430072e+00 0.000000e+00  -7.397757e-01 5.163051e+00 0.000000e+00  -1.258710e+00 5.729629e+00 0.000000e+00  -1.044539e+00 4.970496e+00 0.000000e+00  -3.233008e-01 4.456462e+00 0.000000e+00  0.000000e+00 3.798212e+00 0.000000e+00  -2.770658e-01 3.674450e+00 0.000000e+00  -8.855094e-01 4.231584e+00 0.000000e+00  -5.357609e-01 3.617954e+00 0.000000e+00  -7.672075e-01 3.508171e+00 0.000000e+00  -9.903132e-01 2.936647e+00 0.000000e+00  -5.127599e-01 2.597662e+00 0.000000e+00  -4.941600e-01 2.719819e+00 0.000000e+00  -1.488140e+00 3.179168e+00 0.000000e+00  -1.551566e+00 3.043468e+00 0.000000e+00  -1.990246e+00 3.452028e+00 0.000000e+00  -1.410889e+00 3.269091e+00 0.000000e+00  -1.323709e+00 3.308677e+00 0.000000e+00  -1.754426e+00 3.592055e+00 0.000000e+00  -2.144195e+00 4.336968e+00 0.000000e+00  -2.037282e+00 4.420097e+00 0.000000e+00  -1.900676e+00 4.061161e+00 0.000000e+00  -2.414820e+00 4.544467e+00 0.000000e+00  -2.657182e+00 4.991559e+00 0.000000e+00  -2.705529e+00 4.672168e+00 0.000000e+00  -2.133635e+00 4.150562e+00 0.000000e+00  -1.822879e+00 3.803369e+00 0.000000e+00  -2.000891e+00 3.892779e+00 0.000000e+00  -3.559347e+00 4.499208e+00 0.000000e+00  -4.124465e+00 4.954762e+00 0.000000e+00  -3.775742e+00 4.260733e+00 0.000000e+00  -3.295826e+00 4.652168e+00 0.000000e+00  -3.401049e+00 5.204660e+00 0.000000e+00  -3.004664e+00 4.710078e+00 0.000000e+00  -3.020697e+00 4.104881e+00 0.000000e+00  -2.624540e+00 3.588371e+00 0.000000e+00  -2.499679e+00 3.758677e+00 0.000000e+00  -2.596171e+00 4.284770e+00 0.000000e+00  -2.348227e+00 3.869710e+00 0.000000e+00  -2.178873e+00 3.915231e+00 0.000000e+00  -2.115226e+00 4.810483e+00 0.000000e+00  -2.121024e+00 5.228293e+00 0.000000e+00  -2.039020e+00 5.664429e+00 0.000000e+00  -2.452702e+00 5.192458e+00 0.000000e+00  -2.847013e+00 5.498975e+00 0.000000e+00  -4.271840e+00 5.720240e+00 0.000000e+00  -4.122917e+00 6.487675e+00 0.000000e+00  -3.626617e+00 7.111640e+00 0.000000e+00  -3.778531e+00 5.787928e+00 0.000000e+00  -3.293849e+00 5.706281e+00 0.000000e+00  -1.126365e+00 6.862838e+00 0.000000e+00  -1.951065e+00 7.324473e+00 0.000000e+00  -2.845498e+00 7.421539e+00 0.000000e+00  -1.549781e+00 6.513558e+00 0.000000e+00  -1.852950e+00 6.102064e+00 0.000000e+00  -2.977514e+00 6.716712e+00 0.000000e+00  -2.453936e+00 6.220597e+00 0.000000e+00  -2.963847e+00 6.073176e+00 0.000000e+00  -3.734702e-01 7.164021e-01 0.000000e+00  -1.896979e-01 0.000000e+00 0.000000e+00  -5.747277e-01 1.392655e+00 0.000000e+00  -7.812691e-01 2.017940e+00 0.000000e+00  -5.472762e-01 6.960356e-01 0.000000e+00  -5.558112e-01 0.000000e+00 0.000000e+00  -6.990594e-01 6.721642e-01 0.000000e+00  -1.413082e+00 3.381196e+00 0.000000e+00  -1.579482e+00 3.613903e+00 0.000000e+00  -1.211677e+00 3.030167e+00 0.000000e+00  -9.961408e-01 2.570288e+00 0.000000e+00  -1.264503e+00 2.847199e+00 0.000000e+00  -1.269880e+00 2.663785e+00 0.000000e+00  -1.149982e+00 2.296096e+00 0.000000e+00  -9.743701e-01 5.811930e-01 0.000000e+00  -9.970697e-01 5.477261e-01 0.000000e+00  -9.676003e-01 0.000000e+00 0.000000e+00  -1.007946e+00 1.159800e+00 0.000000e+00  -1.082700e+00 1.628625e+00 0.000000e+00  -1.065442e+00 1.732419e+00 0.000000e+00  -9.159321e-01 6.137684e-01 0.000000e+00  -8.236765e-01 0.000000e+00 0.000000e+00  -8.232586e-01 6.444426e-01 0.000000e+00  -9.131591e-01 1.930636e+00 0.000000e+00  -1.008663e+00 1.834206e+00 0.000000e+00  -8.571986e-01 1.288489e+00 0.000000e+00  -2.137394e-01 3.436418e-01 0.000000e+00  -1.803807e-01 0.000000e+00 0.000000e+00  0.000000e+00 2.494907e-01 0.000000e+00  -4.129870e-01 3.635183e-01 0.000000e+00  -5.699146e-01 0.000000e+00 0.000000e+00  -5.877354e-01 3.916978e-01 0.000000e+00  -2.192241e-01 6.856866e-01 0.000000e+00  0.000000e+00 9.077033e-01 0.000000e+00  -2.277727e-01 1.019815e+00 0.000000e+00  -2.674368e-01 1.918004e+00 0.000000e+00  -2.867030e-01 2.166645e+00 0.000000e+00  0.000000e+00 2.003499e+00 0.000000e+00  -4.833028e-01 1.743630e+00 0.000000e+00  -6.930126e-01 1.866926e+00 0.000000e+00  -6.516014e-01 1.522229e+00 0.000000e+00  -2.512356e-01 1.640827e+00 0.000000e+00  0.000000e+00 1.500373e+00 0.000000e+00  -2.380786e-01 1.339825e+00 0.000000e+00  -9.344622e-01 4.814660e-01 0.000000e+00  -9.836054e-01 5.142463e-01 0.000000e+00  -9.717109e-01 0.000000e+00 0.000000e+00  -8.697688e-01 8.947864e-01 0.000000e+00  -9.062652e-01 1.330221e+00 0.000000e+00  -7.781804e-01 1.240659e+00 0.000000e+00  -8.508547e-01 4.499210e-01 0.000000e+00  -8.357164e-01 0.000000e+00 0.000000e+00  -7.345536e-01 4.199254e-01 0.000000e+00  -6.201148e-01 1.157837e+00 0.000000e+00  -5.980725e-01 7.791312e-01 0.000000e+00  -4.353924e-01 1.081293e+00 0.000000e+00  -4.712879e-01 2.803549e+00 0.000000e+00  0.000000e+00 2.540884e+00 0.000000e+00  -8.872876e-01 3.060769e+00 0.000000e+00  -1.230847e+00 3.295411e+00 0.000000e+00  -4.452689e-01 2.844974e+00 0.000000e+00  0.000000e+00 2.658563e+00 0.000000e+00  -4.173358e-01 2.841653e+00 0.000000e+00  -1.716413e+00 3.734726e+00 0.000000e+00  -1.687559e+00 3.728379e+00 0.000000e+00  -1.651927e+00 3.650709e+00 0.000000e+00  -1.488952e+00 3.497519e+00 0.000000e+00  -1.493271e+00 3.440286e+00 0.000000e+00  -1.350349e+00 3.178533e+00 0.000000e+00  -1.238244e+00 3.176651e+00 0.000000e+00  -3.336555e-01 2.560692e+00 0.000000e+00  -3.088830e-01 2.382251e+00 0.000000e+00  0.000000e+00 2.381941e+00 0.000000e+00  -6.541552e-01 2.736289e+00 0.000000e+00  -8.770810e-01 2.729514e+00 0.000000e+00  -9.569726e-01 2.942516e+00 0.000000e+00  -3.605064e-01 2.698409e+00 0.000000e+00  0.000000e+00 2.606073e+00 0.000000e+00  -3.887111e-01 2.792639e+00 0.0000