<?xml version="1.0"?>
<VTKFile type="UnstructuredGrid"  version="0.1"  >
<UnstructuredGrid>
<Piece  NumberOfPoints="4225" NumberOfCells="8192">
<Points>
<DataArray  type="Float32"  NumberOfComponents="3"  format="ascii">0 0 0  0.015625 0 0  0.03125 0 0  0.046875 0 0  0.0625 0 0  0.078125 0 0  0.09375 0 0  0.109375 0 0  0.125 0 0  0.140625 0 0  0.15625 0 0  0.171875 0 0  0.1875 0 0  0.203125 0 0  0.21875 0 0  0.234375 0 0  0.25 0 0  0.265625 0 0  0.28125 0 0  0.296875 0 0  0.3125 0 0  0.328125 0 0  0.34375 0 0  0.359375 0 0  0.375 0 0  0.390625 0 0  0.40625 0 0  0.421875 0 0  0.4375 0 0  0.453125 0 0  0.46875 0 0  0.484375 0 0  0.5 0 0  0.515625 0 0  0.53125 0 0  0.546875 0 0  0.5625 0 0  0.578125 0 0  0.59375 0 0  0.609375 0 0  0.625 0 0  0.640625 0 0  0.65625 0 0  0.671875 0 0  0.6875 0 0  0.703125 0 0  0.71875 0 0  0.734375 0 0  0.75 0 0  0.765625 0 0  0.78125 0 0  0.796875 0 0  0.8125 0 0  0.828125 0 0  0.84375 0 0  0.859375 0 0  0.875 0 0  0.890625 0 0  0.90625 0 0  0.921875 0 0  0.9375 0 0  0.953125 0 0  0.96875 0 0  0.984375 0 0  1 0 0  0 0.015625 0  0.015625 0.015625 0  0.03125 0.015625 0  0.046875 0.015625 0  0.0625 0.015625 0  0.078125 0.015625 0  0.09375 0.015625 0  0.109375 0.015625 0  0.125 0.015625 0  0.140625 0.015625 0  0.15625 0.015625 0  0.171875 0.015625 0  0.1875 0.015625 0  0.203125 0.015625 0  0.21875 0.015625 0  0.234375 0.015625 0  0.25 0.015625 0  0.265625 0.015625 0  0.28125 0.015625 0  0.296875 0.015625 0  0.3125 0.015625 0  0.328125 0.015625 0  0.34375 0.015625 0  0.359375 0.015625 0  0.375 0.015625 0  0.390625 0.015625 0  0.40625 0.015625 0  0.421875 0.015625 0  0.4375 0.015625 0  0.453125 0.015625 0  0.46875 0.015625 0  0.484375 0.015625 0  0.5 0.015625 0  0.515625 0.015625 0  0.53125 0.015625 0  0.546875 0.015625 0  0.5625 0.015625 0  0.578125 0.015625 0  0.59375 0.015625 0  0.609375 0.015625 0  0.625 0.015625 0  0.640625 0.015625 0  0.65625 0.015625 0  0.671875 0.015625 0  0.6875 0.015625 0  0.703125 0.015625 0  0.71875 0.015625 0  0.734375 0.015625 0  0.75 0.015625 0  0.765625 0.015625 0  0.78125 0.015625 0  0.796875 0.015625 0  0.8125 0.015625 0  0.828125 0.015625 0  0.84375 0.015625 0  0.859375 0.015625 0  0.875 0.015625 0  0.890625 0.015625 0  0.90625 0.015625 0  0.921875 0.015625 0  0.9375 0.015625 0  0.953125 0.015625 0  0.96875 0.015625 0  0.984375 0.015625 0  1 0.015625 0  0 0.03125 0  0.015625 0.03125 0  0.03125 0.03125 0  0.046875 0.03125 0  0.0625 0.03125 0  0.078125 0.03125 0  0.09375 0.03125 0  0.109375 0.03125 0  0.125 0.03125 0  0.140625 0.03125 0  0.15625 0.03125 0  0.171875 0.03125 0  0.1875 0.03125 0  0.203125 0.03125 0  0.21875 0.03125 0  0.234375 0.03125 0  0.25 0.03125 0  0.265625 0.03125 0  0.28125 0.03125 0  0.296875 0.03125 0  0.3125 0.03125 0  0.328125 0.03125 0  0.34375 0.03125 0  0.359375 0.03125 0  0.375 0.03125 0  0.390625 0.03125 0  0.40625 0.03125 0  0.421875 0.03125 0  0.4375 0.03125 0  0.453125 0.03125 0  0.46875 0.03125 0  0.484375 0.03125 0  0.5 0.03125 0  0.515625 0.03125 0  0.53125 0.03125 0  0.546875 0.03125 0  0.5625 0.03125 0  0.578125 0.03125 0  0.59375 0.03125 0  0.609375 0.03125 0  0.625 0.03125 0  0.640625 0.03125 0  0.65625 0.03125 0  0.671875 0.03125 0  0.6875 0.03125 0  0.703125 0.03125 0  0.71875 0.03125 0  0.734375 0.03125 0  0.75 0.03125 0  0.765625 0.03125 0  0.78125 0.03125 0  0.796875 0.03125 0  0.8125 0.03125 0  0.828125 0.03125 0  0.84375 0.03125 0  0.859375 0.03125 0  0.875 0.03125 0  0.890625 0.03125 0  0.90625 0.03125 0  0.921875 0.03125 0  0.9375 0.03125 0  0.953125 0.03125 0  0.96875 0.03125 0  0.984375 0.03125 0  1 0.03125 0  0 0.046875 0  0.015625 0.046875 0  0.03125 0.046875 0  0.046875 0.046875 0  0.0625 0.046875 0  0.078125 0.046875 0  0.09375 0.046875 0  0.109375 0.046875 0  0.125 0.046875 0  0.140625 0.046875 0  0.15625 0.046875 0  0.171875 0.046875 0  0.1875 0.046875 0  0.203125 0.046875 0  0.21875 0.046875 0  0.234375 0.046875 0  0.25 0.046875 0  0.265625 0.046875 0  0.28125 0.046875 0  0.296875 0.046875 0  0.3125 0.046875 0  0.328125 0.046875 0  0.34375 0.046875 0  0.359375 0.046875 0  0.375 0.046875 0  0.390625 0.046875 0  0.40625 0.046875 0  0.421875 0.046875 0  0.4375 0.046875 0  0.453125 0.046875 0  0.46875 0.046875 0  0.484375 0.046875 0  0.5 0.046875 0  0.515625 0.046875 0  0.53125 0.046875 0  0.546875 0.046875 0  0.5625 0.046875 0  0.578125 0.046875 0  0.59375 0.046875 0  0.609375 0.046875 0  0.625 0.046875 0  0.640625 0.046875 0  0.65625 0.046875 0  0.671875 0.046875 0  0.6875 0.046875 0  0.703125 0.046875 0  0.71875 0.046875 0  0.734375 0.046875 0  0.75 0.046875 0  0.765625 0.046875 0  0.78125 0.046875 0  0.796875 0.046875 0  0.8125 0.046875 0  0.828125 0.046875 0  0.84375 0.046875 0  0.859375 0.046875 0  0.875 0.046875 0  0.890625 0.046875 0  0.90625 0.046875 0  0.921875 0.046875 0  0.9375 0.046875 0  0.953125 0.046875 0  0.96875 0.046875 0  0.984375 0.046875 0  1 0.046875 0  0 0.0625 0  0.015625 0.0625 0  0.03125 0.0625 0  0.046875 0.0625 0  0.0625 0.0625 0  0.078125 0.0625 0  0.09375 0.0625 0  0.109375 0.0625 0  0.125 0.0625 0  0.140625 0.0625 0  0.15625 0.0625 0  0.171875 0.0625 0  0.1875 0.0625 0  0.203125 0.0625 0  0.21875 0.0625 0  0.234375 0.0625 0  0.25 0.0625 0  0.265625 0.0625 0  0.28125 0.0625 0  0.296875 0.0625 0  0.3125 0.0625 0  0.328125 0.0625 0  0.34375 0.0625 0  0.359375 0.0625 0  0.375 0.0625 0  0.390625 0.0625 0  0.40625 0.0625 0  0.421875 0.0625 0  0.4375 0.0625 0  0.453125 0.0625 0  0.46875 0.0625 0  0.484375 0.0625 0  0.5 0.0625 0  0.515625 0.0625 0  0.53125 0.0625 0  0.546875 0.0625 0  0.5625 0.0625 0  0.578125 0.0625 0  0.59375 0.0625 0  0.609375 0.0625 0  0.625 0.0625 0  0.640625 0.0625 0  0.65625 0.0625 0  0.671875 0.0625 0  0.6875 0.0625 0  0.703125 0.0625 0  0.71875 0.0625 0  0.734375 0.0625 0  0.75 0.0625 0  0.765625 0.0625 0  0.78125 0.0625 0  0.796875 0.0625 0  0.8125 0.0625 0  0.828125 0.0625 0  0.84375 0.0625 0  0.859375 0.0625 0  0.875 0.0625 0  0.890625 0.0625 0  0.90625 0.0625 0  0.921875 0.0625 0  0.9375 0.0625 0  0.953125 0.0625 0  0.96875 0.0625 0  0.984375 0.0625 0  1 0.0625 0  0 0.078125 0  0.015625 0.078125 0  0.03125 0.078125 0  0.046875 0.078125 0  0.0625 0.078125 0  0.078125 0.078125 0  0.09375 0.078125 0  0.109375 0.078125 0  0.125 0.078125 0  0.140625 0.078125 0  0.15625 0.078125 0  0.171875 0.078125 0  0.1875 0.078125 0  0.203125 0.078125 0  0.21875 0.078125 0  0.234375 0.078125 0  0.25 0.078125 0  0.265625 0.078125 0  0.28125 0.078125 0  0.296875 0.078125 0  0.3125 0.078125 0  0.328125 0.078125 0  0.34375 0.078125 0  0.359375 0.078125 0  0.375 0.078125 0  0.390625 0.078125 0  0.40625 0.078125 0  0.421875 0.078125 0  0.4375 0.078125 0  0.453125 0.078125 0  0.46875 0.078125 0  0.484375 0.078125 0  0.5 0.078125 0  0.515625 0.078125 0  0.53125 0.078125 0  0.546875 0.078125 0  0.5625 0.078125 0  0.578125 0.078125 0  0.59375 0.078125 0  0.609375 0.078125 0  0.625 0.078125 0  0.640625 0.078125 0  0.65625 0.078125 0  0.671875 0.078125 0  0.6875 0.078125 0  0.703125 0.078125 0  0.71875 0.078125 0  0.734375 0.078125 0  0.75 0.078125 0  0.765625 0.078125 0  0.78125 0.078125 0  0.796875 0.078125 0  0.8125 0.078125 0  0.828125 0.078125 0  0.84375 0.078125 0  0.859375 0.078125 0  0.875 0.078125 0  0.890625 0.078125 0  0.90625 0.078125 0  0.921875 0.078125 0  0.9375 0.078125 0  0.953125 0.078125 0  0.96875 0.078125 0  0.984375 0.078125 0  1 0.078125 0  0 0.09375 0  0.015625 0.09375 0  0.03125 0.09375 0  0.046875 0.09375 0  0.0625 0.09375 0  0.078125 0.09375 0  0.09375 0.09375 0  0.109375 0.09375 0  0.125 0.09375 0  0.140625 0.09375 0  0.15625 0.09375 0  0.171875 0.09375 0  0.1875 0.09375 0  0.203125 0.09375 0  0.21875 0.09375 0  0.234375 0.09375 0  0.25 0.09375 0  0.265625 0.09375 0  0.28125 0.09375 0  0.296875 0.09375 0  0.3125 0.09375 0  0.328125 0.09375 0  0.34375 0.09375 0  0.359375 0.09375 0  0.375 0.09375 0  0.390625 0.09375 0  0.40625 0.09375 0  0.421875 0.09375 0  0.4375 0.09375 0  0.453125 0.09375 0  0.46875 0.09375 0  0.484375 0.09375 0  0.5 0.09375 0  0.515625 0.09375 0  0.53125 0.09375 0  0.546875 0.09375 0  0.5625 0.09375 0  0.578125 0.09375 0  0.59375 0.09375 0  0.609375 0.09375 0  0.625 0.09375 0  0.640625 0.09375 0  0.65625 0.09375 0  0.671875 0.09375 0  0.6875 0.09375 0  0.703125 0.09375 0  0.71875 0.09375 0  0.734375 0.09375 0  0.75 0.09375 0  0.765625 0.09375 0  0.78125 0.09375 0  0.796875 0.09375 0  0.8125 0.09375 0  0.828125 0.09375 0  0.84375 0.09375 0  0.859375 0.09375 0  0.875 0.09375 0  0.890625 0.09375 0  0.90625 0.09375 0  0.921875 0.09375 0  0.9375 0.09375 0  0.953125 0.09375 0  0.96875 0.09375 0  0.984375 0.09375 0  1 0.09375 0  0 0.109375 0  0.015625 0.109375 0  0.03125 0.109375 0  0.046875 0.109375 0  0.0625 0.109375 0  0.078125 0.109375 0  0.09375 0.109375 0  0.109375 0.109375 0  0.125 0.109375 0  0.140625 0.109375 0  0.15625 0.109375 0  0.171875 0.109375 0  0.1875 0.109375 0  0.203125 0.109375 0  0.21875 0.109375 0  0.234375 0.109375 0  0.25 0.109375 0  0.265625 0.109375 0  0.28125 0.109375 0  0.296875 0.109375 0  0.3125 0.109375 0  0.328125 0.109375 0  0.34375 0.109375 0  0.359375 0.109375 0  0.375 0.109375 0  0.390625 0.109375 0  0.40625 0.109375 0  0.421875 0.109375 0  0.4375 0.109375 0  0.453125 0.109375 0  0.46875 0.109375 0  0.484375 0.109375 0  0.5 0.109375 0  0.515625 0.109375 0  0.53125 0.109375 0  0.546875 0.109375 0  0.5625 0.109375 0  0.578125 0.109375 0  0.59375 0.109375 0  0.609375 0.109375 0  0.625 0.109375 0  0.640625 0.109375 0  0.65625 0.109375 0  0.671875 0.109375 0  0.6875 0.109375 0  0.703125 0.109375 0  0.71875 0.109375 0  0.734375 0.109375 0  0.75 0.109375 0  0.765625 0.109375 0  0.78125 0.109375 0  0.796875 0.109375 0  0.8125 0.109375 0  0.828125 0.109375 0  0.84375 0.109375 0  0.859375 0.109375 0  0.875 0.109375 0  0.890625 0.109375 0  0.90625 0.109375 0  0.921875 0.109375 0  0.9375 0.109375 0  0.953125 0.109375 0  0.96875 0.109375 0  0.984375 0.109375 0  1 0.109375 0  0 0.125 0  0.015625 0.125 0  0.03125 0.125 0  0.046875 0.125 0  0.0625 0.125 0  0.078125 0.125 0  0.09375 0.125 0  0.109375 0.125 0  0.125 0.12
[...]
<PointData  Vectors="u"> 
<DataArray  type="Float32"  Name="u"  NumberOfComponents="3" format="ascii">0.000000e+00 0.000000e+00 0.000000e+00  0.000000e+00 1.568160e-01 0.000000e+00  0.000000e+00 3.181540e-01 0.000000e+00  0.000000e+00 4.837327e-01 0.000000e+00  0.000000e+00 6.532447e-01 0.000000e+00  0.000000e+00 8.263604e-01 0.000000e+00  0.000000e+00 1.002729e+00 0.000000e+00  0.000000e+00 1.181981e+00 0.000000e+00  0.000000e+00 1.363724e+00 0.000000e+00  0.000000e+00 1.547549e+00 0.000000e+00  0.000000e+00 1.733028e+00 0.000000e+00  0.000000e+00 1.919715e+00 0.000000e+00  0.000000e+00 2.107144e+00 0.000000e+00  0.000000e+00 2.294835e+00 0.000000e+00  0.000000e+00 2.482292e+00 0.000000e+00  0.000000e+00 2.669003e+00 0.000000e+00  0.000000e+00 2.854440e+00 0.000000e+00  0.000000e+00 3.038065e+00 0.000000e+00  0.000000e+00 3.219325e+00 0.000000e+00  0.000000e+00 3.397658e+00 0.000000e+00  0.000000e+00 3.572490e+00 0.000000e+00  0.000000e+00 3.743241e+00 0.000000e+00  0.000000e+00 3.909319e+00 0.000000e+00  0.000000e+00 4.070131e+00 0.000000e+00  0.000000e+00 4.225075e+00 0.000000e+00  0.000000e+00 4.373549e+00 0.000000e+00  0.000000e+00 4.514948e+00 0.000000e+00  0.000000e+00 4.648666e+00 0.000000e+00  0.000000e+00 4.774099e+00 0.000000e+00  0.000000e+00 4.890647e+00 0.000000e+00  0.000000e+00 4.997715e+00 0.000000e+00  0.000000e+00 5.094712e+00 0.000000e+00  0.000000e+00 5.181059e+00 0.000000e+00  0.000000e+00 5.256185e+00 0.000000e+00  0.000000e+00 5.319532e+00 0.000000e+00  0.000000e+00 5.370556e+00 0.000000e+00  0.000000e+00 5.408729e+00 0.000000e+00  0.000000e+00 5.433539e+00 0.000000e+00  0.000000e+00 5.444497e+00 0.000000e+00  0.000000e+00 5.441134e+00 0.000000e+00  0.000000e+00 5.423004e+00 0.000000e+00  0.000000e+00 5.389689e+00 0.000000e+00  0.000000e+00 5.340797e+00 0.000000e+00  0.000000e+00 5.275965e+00 0.000000e+00  0.000000e+00 5.194863e+00 0.000000e+00  0.000000e+00 5.097193e+00 0.000000e+00  0.000000e+00 4.982693e+00 0.000000e+00  0.000000e+00 4.851139e+00 0.000000e+00  0.000000e+00 4.702344e+00 0.000000e+00  0.000000e+00 4.536162e+00 0.000000e+00  0.000000e+00 4.352490e+00 0.000000e+00  0.000000e+00 4.151269e+00 0.000000e+00  0.000000e+00 3.932485e+00 0.000000e+00  0.000000e+00 3.696170e+00 0.000000e+00  0.000000e+00 3.442407e+00 0.000000e+00  0.000000e+00 3.171325e+00 0.000000e+00  0.000000e+00 2.883107e+00 0.000000e+00  0.000000e+00 2.577988e+00 0.000000e+00  0.000000e+00 2.256253e+00 0.000000e+00  0.000000e+00 1.918246e+00 0.000000e+00  0.000000e+00 1.564361e+00 0.000000e+00  0.000000e+00 1.195052e+00 0.000000e+00  0.000000e+00 8.108296e-01 0.000000e+00  0.000000e+00 4.122647e-01 0.000000e+00  0.000000e+00 0.000000e+00 0.000000e+00  1.568160e-01 0.000000e+00 0.000000e+00  1.615491e-01 1.615491e-01 0.000000e+00  1.660049e-01 3.277690e-01 0.000000e+00  1.701586e-01 4.983615e-01 0.000000e+00  1.739881e-01 6.730080e-01 0.000000e+00  1.774720e-01 8.513682e-01 0.000000e+00  1.805896e-01 1.033081e+00 0.000000e+00  1.833207e-01 1.217764e+00 0.000000e+00  1.856455e-01 1.405015e+00 0.000000e+00  1.875448e-01 1.594412e+00 0.000000e+00  1.889998e-01 1.785513e+00 0.000000e+00  1.899925e-01 1.977858e+00 0.000000e+00  1.905054e-01 2.170969e+00 0.000000e+00  1.905220e-01 2.364351e+00 0.000000e+00  1.900263e-01 2.557492e+00 0.000000e+00  1.890035e-01 2.749864e+00 0.000000e+00  1.874395e-01 2.940924e+00 0.000000e+00  1.853214e-01 3.130118e+00 0.000000e+00  1.826372e-01 3.316875e+00 0.000000e+00  1.793762e-01 3.500617e+00 0.000000e+00  1.755288e-01 3.680753e+00 0.000000e+00  1.710868e-01 3.856683e+00 0.000000e+00  1.660434e-01 4.027800e+00 0.000000e+00  1.603928e-01 4.193491e+00 0.000000e+00  1.541313e-01 4.353137e+00 0.000000e+00  1.472560e-01 4.506116e+00 0.000000e+00  1.397663e-01 4.651807e+00 0.000000e+00  1.316626e-01 4.789583e+00 0.000000e+00  1.229474e-01 4.918824e+00 0.000000e+00  1.136247e-01 5.038911e+00 0.000000e+00  1.037004e-01 5.149230e+00 0.000000e+00  9.318207e-02 5.249174e+00 0.000000e+00  8.207928e-02 5.338145e+00 0.000000e+00  7.040337e-02 5.415554e+00 0.000000e+00  5.816762e-02 5.480828e+00 0.000000e+00  4.538723e-02 5.533405e+00 0.000000e+00  3.207938e-02 5.572741e+00 0.000000e+00  1.826319e-02 5.598309e+00 0.000000e+00  3.959764e-03 5.609606e+00 0.000000e+00  -1.080780e-02 5.606147e+00 0.000000e+00  -2.601443e-02 5.587474e+00 0.000000e+00  -4.163306e-02 5.553154e+00 0.000000e+00  -5.763467e-02 5.502785e+00 0.000000e+00  -7.398827e-02 5.435993e+00 0.000000e+00  -9.066094e-02 5.352437e+00 0.000000e+00  -1.076179e-01 5.251811e+00 0.000000e+00  -1.248223e-01 5.133845e+00 0.000000e+00  -1.422358e-01 4.998307e+00 0.000000e+00  -1.598180e-01 4.845004e+00 0.000000e+00  -1.775268e-01 4.673788e+00 0.000000e+00  -1.953184e-01 4.484551e+00 0.000000e+00  -2.131476e-01 4.277231e+00 0.000000e+00  -2.309674e-01 4.051816e+00 0.000000e+00  -2.487295e-01 3.808338e+00 0.000000e+00  -2.663840e-01 3.546881e+00 0.000000e+00  -2.838799e-01 3.267581e+00 0.000000e+00  -3.011650e-01 2.970624e+00 0.000000e+00  -3.181856e-01 2.656252e+00 0.000000e+00  -3.348875e-01 2.324760e+00 0.000000e+00  -3.512152e-01 1.976500e+00 0.000000e+00  -3.671124e-01 1.611881e+00 0.000000e+00  -3.825216e-01 1.231368e+00 0.000000e+00  -3.973844e-01 8.354849e-01 0.000000e+00  -4.116395e-01 4.248157e-01 0.000000e+00  -4.252201e-01 0.000000e+00 0.000000e+00  3.181540e-01 0.000000e+00 0.000000e+00  3.277690e-01 1.660049e-01 0.000000e+00  3.368138e-01 3.368138e-01 0.000000e+00  3.452437e-01 5.121192e-01 0.000000e+00  3.530147e-01 6.915923e-01 0.000000e+00  3.600844e-01 8.748831e-01 0.000000e+00  3.664107e-01 1.061620e+00 0.000000e+00  3.719526e-01 1.251410e+00 0.000000e+00  3.766702e-01 1.443839e+00 0.000000e+00  3.805243e-01 1.638474e+00 0.000000e+00  3.834770e-01 1.834862e+00 0.000000e+00  3.854917e-01 2.032528e+00 0.000000e+00  3.865329e-01 2.230982e+00 0.000000e+00  3.865670e-01 2.429714e+00 0.000000e+00  3.855618e-01 2.628199e+00 0.000000e+00  3.834869e-01 2.825894e+00 0.000000e+00  3.803140e-01 3.022242e+00 0.000000e+00  3.760168e-01 3.216672e+00 0.000000e+00  3.705710e-01 3.408599e+00 0.000000e+00  3.639548e-01 3.597427e+00 0.000000e+00  3.561489e-01 3.782549e+00 0.000000e+00  3.471366e-01 3.963350e+00 0.000000e+00  3.369038e-01 4.139205e+00 0.000000e+00  3.254393e-01 4.309483e+00 0.000000e+00  3.127349e-01 4.473550e+00 0.000000e+00  2.987855e-01 4.630767e+00 0.000000e+00  2.835891e-01 4.780493e+00 0.000000e+00  2.671471e-01 4.922086e+00 0.000000e+00  2.494643e-01 5.054908e+00 0.000000e+00  2.305489e-01 5.178323e+00 0.000000e+00  2.104127e-01 5.291699e+00 0.000000e+00  1.890714e-01 5.394414e+00 0.000000e+00  1.665441e-01 5.485852e+00 0.000000e+00  1.428539e-01 5.565409e+00 0.000000e+00  1.180278e-01 5.632494e+00 0.000000e+00  9.209656e-02 5.686532e+00 0.000000e+00  6.509509e-02 5.726962e+00 0.000000e+00  3.706217e-02 5.753244e+00 0.000000e+00  8.040624e-03 5.764859e+00 0.000000e+00  -2.192269e-02 5.761310e+00 0.000000e+00  -5.277690e-02 5.742126e+00 0.000000e+00  -8.446710e-02 5.706862e+00 0.000000e+00  -1.169344e-01 5.655105e+00 0.000000e+00  -1.501159e-01 5.586470e+00 0.000000e+00  -1.839449e-01 5.500608e+00 0.000000e+00  -2.183506e-01 5.397202e+00 0.000000e+00  -2.532587e-01 5.275976e+00 0.000000e+00  -2.885908e-01 5.136692e+00 0.000000e+00  -3.242654e-01 4.979151e+00 0.000000e+00  -3.601968e-01 4.803200e+00 0.000000e+00  -3.962965e-01 4.608730e+00 0.000000e+00  -4.324724e-01 4.395677e+00 0.000000e+00  -4.686293e-01 4.164026e+00 0.000000e+00  -5.046691e-01 3.913812e+00 0.000000e+00  -5.404908e-01 3.645121e+00 0.000000e+00  -5.759907e-01 3.358092e+00 0.000000e+00  -6.110629e-01 3.052917e+00 0.000000e+00  -6.455988e-01 2.729844e+00 0.000000e+00  -6.794881e-01 2.389176e+00 0.000000e+00  -7.126183e-01 2.031275e+00 0.000000e+00  -7.448755e-01 1.656560e+00 0.000000e+00  -7.761436e-01 1.265508e+00 0.000000e+00  -8.063051e-01 8.586568e-01 0.000000e+00  -8.352401e-01 4.366030e-01 0.000000e+00  -8.628259e-01 0.000000e+00 0.000000e+00  4.837327e-01 0.000000e+00 0.000000e+00  4.983615e-01 1.701586e-01 0.000000e+00  5.121192e-01 3.452437e-01 0.000000e+00  5.249397e-01 5.249397e-01 0.000000e+00  5.367576e-01 7.089095e-01 0.000000e+00  5.475085e-01 8.967937e-01 0.000000e+00  5.571288e-01 1.088211e+00 0.000000e+00  5.655565e-01 1.282759e+00 0.000000e+00  5.727305e-01 1.480014e+00 0.000000e+00  5.785916e-01 1.679530e+00 0.000000e+00  5.830820e-01 1.880842e+00 0.000000e+00  5.861460e-01 2.083466e+00 0.000000e+00  5.877299e-01 2.286898e+00 0.000000e+00  5.877824e-01 2.490616e+00 0.000000e+00  5.862547e-01 2.694080e+00 0.000000e+00  5.831005e-01 2.896735e+00 0.000000e+00  5.782767e-01 3.098010e+00 0.000000e+00  5.717433e-01 3.297319e+00 0.000000e+00  5.634634e-01 3.494063e+00 0.000000e+00  5.534040e-01 3.687630e+00 0.000000e+00  5.415356e-01 3.877399e+00 0.000000e+00  5.278327e-01 4.062738e+00 0.000000e+00  5.122741e-01 4.243008e+00 0.000000e+00  4.948426e-01 4.417562e+00 0.000000e+00  4.755258e-01 4.585748e+00 0.000000e+00  4.543159e-01 4.746913e+00 0.000000e+00  4.312099e-01 4.900399e+00 0.000000e+00  4.062099e-01 5.045549e+00 0.000000e+00  3.793232e-01 5.181708e+00 0.000000e+00  3.505622e-01 5.308224e+00 0.000000e+00  3.199451e-01 5.424449e+00 0.000000e+00  2.874954e-01 5.529746e+00 0.000000e+00  2.532424e-01 5.623483e+00 0.000000e+00  2.172212e-01 5.705042e+00 0.000000e+00  1.794727e-01 5.773816e+00 0.000000e+00  1.400439e-01 5.829215e+00 0.000000e+00  9.898763e-02 5.870664e+00 0.000000e+00  5.636300e-02 5.897612e+00 0.000000e+00  1.223509e-02 5.909523e+00 0.000000e+00  -3.332485e-02 5.905891e+00 0.000000e+00  -8.023947e-02 5.886231e+00 0.000000e+00  -1.284253e-01 5.850089e+00 0.000000e+00  -1.777928e-01 5.797038e+00 0.000000e+00  -2.282463e-01 5.726686e+00 0.000000e+00  -2.796843e-01 5.638674e+00 0.000000e+00  -3.319994e-01 5.532679e+00 0.000000e+00  -3.850784e-01 5.408416e+00 0.000000e+00  -4.388023e-01 5.265641e+00 0.000000e+00  -4.930468e-01 5.104152e+00 0.000000e+00  -5.476821e-01 4.923790e+00 0.000000e+00  -6.025733e-01 4.724443e+00 0.000000e+00  -6.575804e-01 4.506047e+00 0.000000e+00  -7.125588e-01 4.268585e+00 0.000000e+00  -7.673592e-01 4.012095e+00 0.000000e+00  -8.218280e-01 3.736663e+00 0.000000e+00  -8.758078e-01 3.442432e+00 0.000000e+00  -9.291372e-01 3.129599e+00 0.000000e+00  -9.816516e-01 2.798417e+00 0.000000e+00  -1.033183e+00 2.449199e+00 0.000000e+00  -1.083561e+00 2.082312e+00 0.000000e+00  -1.132612e+00 1.698188e+00 0.000000e+00  -1.180160e+00 1.297315e+00 0.000000e+00  -1.226029e+00 8.802422e-01 0.000000e+00  -1.270038e+00 4.475806e-01 0.000000e+00  -1.312007e+00 0.000000e+00 0.000000e+00  6.532447e-01 0.000000e+00 0.000000e+00  6.730080e-01 1.739881e-01 0.000000e+00  6.915923e-01 3.530147e-01 0.000000e+00  7.089095e-01 5.367576e-01 0.000000e+00  7.248717e-01 7.248717e-01 0.000000e+00  7.393924e-01 9.169896e-01 0.000000e+00  7.523860e-01 1.112721e+00 0.000000e+00  7.637687e-01 1.311655e+00 0.000000e+00  7.734583e-01 1.513356e+00 0.000000e+00  7.813747e-01 1.717371e+00 0.000000e+00  7.874399e-01 1.923223e+00 0.000000e+00  7.915788e-01 2.130416e+00 0.000000e+00  7.937189e-01 2.338437e+00 0.000000e+00  7.937907e-01 2.546750e+00 0.000000e+00  7.917284e-01 2.754804e+00 0.000000e+00  7.874696e-01 2.962032e+00 0.000000e+00  7.809560e-01 3.167848e+00 0.000000e+00  7.721335e-01 3.371654e+00 0.000000e+00  7.609525e-01 3.572837e+00 0.000000e+00  7.473682e-01 3.770773e+00 0.000000e+00  7.313408e-01 3.964825e+00 0.000000e+00  7.128361e-01 4.154348e+00 0.000000e+00  6.918250e-01 4.338688e+00 0.000000e+00  6.682847e-01 4.517183e+00 0.000000e+00  6.421983e-01 4.689167e+00 0.000000e+00  6.135552e-01 4.853971e+00 0.000000e+00  5.823515e-01 5.010924e+00 0.000000e+00  5.485899e-01 5.159352e+00 0.000000e+00  5.122803e-01 5.298587e+00 0.000000e+00  4.734395e-01 5.427962e+00 0.000000e+00  4.320919e-01 5.546814e+00 0.000000e+00  3.882694e-01 5.654491e+00 0.000000e+00  3.420115e-01 5.750348e+00 0.000000e+00  2.933656e-01 5.833752e+00 0.000000e+00  2.423870e-01 5.904083e+00 0.000000e+00  1.891391e-01 5.960736e+00 0.000000e+00  1.336933e-01 6.003127e+00 0.000000e+00  7.612932e-02 6.030687e+00 0.000000e+00  1.653515e-02 6.042873e+00 0.000000e+00  -4.499303e-02 6.039164e+00 0.000000e+00  -1.083508e-01 6.019066e+00 0.000000e+00  -1.734253e-01 5.982113e+00 0.000000e+00  -2.400957e-01 5.927871e+00 0.000000e+00  -3.082329e-01 5.855937e+00 0.000000e+00  -3.776998e-01 5.765944e+00 0.000000e+00  -4.483512e-01 5.657562e+00 0.000000e+00  -5.200343e-01 5.530500e+00 0.000000e+00  -5.925885e-01 5.384507e+00 0.000000e+00  -6.658458e-01 5.219378e+00 0.000000e+00  -7.396310e-01 5.034950e+00 0.000000e+00  -8.137619e-01 4.831108e+00 0.000000e+00  -8.880495e-01 4.607787e+00 0.000000e+00  -9.622984e-01 4.364970e+00 0.000000e+00  -1.036307e+00 4.102693e+00 0.000000e+00  -1.109868e+00 3.821047e+00 0.000000e+00  -1.182769e+00 3.520177e+00 0.000000e+00  -1.254792e+00 3.200285e+00 0.000000e+00  -1.325714e+00 2.861628e+00 0.000000e+00  -1.395309e+00 2.504526e+00 0.000000e+00  -1.463347e+00 2.129357e+00 0.000000e+00  -1.529594e+00 1.736559e+00 0.000000e+00  -1.593814e+00 1.326631e+00 0.000000e+00  -1.655767e+00 9.001361e-01 0.000000e+00  -1.715214e+00 4.576972e-01 0.000000e+00  -1.771912e+00 0.000000e+00 0.000000e+00  8.263604e-01 0.000000e+00 0.000000e+00  8.513682e-01 1.774720e-01 0.000000e+00  8.748831e-01 3.600844e-01 0.000000e+00  8.967937e-01 5.475085e-01 0.000000e+00  9.169896e-01 7.393924e-01 0.000000e+00  9.353612e-01 9.353612e-01 0.000000e+00  9.518007e-01 1.135017e+00 0.000000e+00  9.662021e-01 1.337939e+00 0.000000e+00  9.784614e-01 1.543686e+00 0.000000e+00  9.884774e-01 1.751793e+00 0.000000e+00  9.961516e-01 1.961775e+00 0.000000e+00  1.001389e+00 2.173125e+00 0.000000e+00  1.004097e+00 2.385320e+00 0.000000e+00  1.004189e+00 2.597813e+00 0.000000e+00  1.001581e+00 2.810043e+00 0.000000e+00  9.961949e-01 3.021430e+00 0.000000e+00  9.879559e-01 3.231378e+00 0.000000e+00  9.767959e-01 3.439275e+00 0.000000e+00  9.626523e-01 3.644498e+00 0.000000e+00  9.454684e-01 3.846408e+00 0.000000e+00  9.251938e-01 4.044357e+00 0.000000e+00  9.017851e-01 4.237686e+00 0.000000e+00  8.752057e-01 4.425728e+00 0.000000e+00  8.454268e-01 4.607808e+00 0.000000e+00  8.124267e-01 4.783248e+00 0.000000e+00  7.761924e-01 4.951363e+00 0.000000e+00  7.367186e-01 5.111470e+00 0.000000e+00  6.940089e-01 5.262881e+00 0.000000e+00  6.480757e-01 5.404915e+00 0.000000e+00  5.989404e-01 5.536890e+00 0.000000e+00  5.466339e-01 5.658133e+00 0.000000e+00  4.911963e-01 5.767976e+00 0.000000e+00  4.326778e-01 5.865762e+00 0.000000e+00  3.711383e-01 5.950844e+00 0.000000e+00  3.066476e-01 6.022592e+00 0.000000e+00  2.392861e-01 6.080388e+00 0.000000e+00  1.691441e-01 6.123634e+00 0.000000e+00  9.632238e-02 6.151753e+00 0.000000e+00  2.093225e-02 6.164189e+00 0.000000e+00  -5.690460e-02 6.160410e+00 0.000000e+00  -1.370560e-01 6.139914e+00 0.000000e+00  -2.193794e-01 6.102224e+00 0.000000e+00  -3.037218e-01 6.046898e+00 0.000000e+00  -3.899198e-01 5.973525e+00 0.000000e+00  -4.778000e-01 5.881730e+00 0.000000e+00  -5.671789e-01 5.771177e+00 0.000000e+00  -6.578629e-01 5.641568e+00 0.000000e+00  -7.496492e-01 5.492649e+00 0.000000e+00  -8.423250e-01 5.324209e+00 0.000000e+00  -9.356689e-01 5.136082e+00 0.000000e+00  -1.029450e+00 4.928151e+00 0.000000e+00  -1.123430e+00 4.700349e+00 0.000000e+00  -1.217361e+00 4.452659e+00 0.000000e+00  -1.310988e+00 4.185118e+00 0.000000e+00  -1.404049e+00 3.897819e+00 0.000000e+00  -1.496275e+00 3.590909e+00 0.000000e+00  -1.587390e+00 3.264593e+00 0.000000e+00  -1.677114e+00 2.919136e+00 0.000000e+00  -1.765160e+00 2.554862e+00 0.000000e+00  -1.851236e+00 2.172156e+00 0.000000e+00  -1.935048e+00 1.771466e+00 0.000000e+00  -2.016296e+00 1.353301e+00 0.000000e+00  -2.094680e+00 9.182335e-01 0.000000e+00  -2.169895e+00 4.668999e-01 0.000000e+00  -2.241639e+00 0.000000e+00 0.000000e+00  1.002729e+00 0.000000e+00 0.000000e+00  1.033081e+00 1.805896e-01 0.000000e+00  1.061620e+00 3.664107e-01 0.000000e+00  1.088211e+00 5.571288e-01 0.000000e+00  1.112721e+00 7.523860e-01 0.000000e+00  1.135017e+00 9.518007e-01 0.000000e+00  1.154968e+00 1.154968e+00 0.000000e+00  1.172445e+00 1.361460e+00 0.000000e+00  1.187324e+00 1.570827e+00 0.000000e+00  1.199479e+00 1.782595e+00 0.000000e+00  1.208793e+00 1.996273e+00 0.000000e+00  1.215150e+00 2.211343e+00 0.000000e+00  1.218438e+00 2.427273e+00 0.000000e+00  1.218551e+00 2.643507e+00 0.000000e+00  1.215388e+00 2.859474e+00 0.000000e+00  1.208853e+00 3.074583e+00 0.000000e+00  1.198856e+00 3.288228e+00 0.000000e+00  1.185315e+00 3.499788e+00 0.000000e+00  1.168153e+00 3.708625e+00 0.000000e+00  1.147302e+00 3.914092e+00 0.000000e+00  1.122701e+00 4.115529e+00 0.000000e+00  1.094296e+00 4.312264e+00 0.000000e+00  1.062044e+00 4.503620e+00 0.000000e+00  1.025909e+00 4.688909e+00 0.000000e+00  9.858655e-01 4.867441e+00 0.000000e+00  9.418970e-01 5.038520e+00 0.000000e+00  8.939976e-01 5.201449e+00 0.000000e+00  8.421715e-01 5.355531e+00 0.000000e+00  7.864337e-01 5.500069e+00 0.000000e+00  7.268102e-01 5.634373e+00 0.000000e+00  6.633384e-01 5.757755e+00 0.000000e+00  5.960671e-01 5.869537e+00 0.000000e+00  5.250571e-01 5.969049e+00 0.000000e+00  4.503811e-01 6.055635e+00 0.000000e+00  3.721240e-01 6.128650e+00 0.000000e+00  2.903830e-01 6.187469e+00 0.000000e+00  2.052679e-01 6.231482e+00 0.000000e+00  1.169010e-01 6.260101e+00 0.000000e+00  2.541732e-02 6.272760e+00 0.000000e+00  -6.903552e-02 6.268920e+00 0.000000e+00  -1.662971e-01 6.248068e+00 0.000000e+00  -2.661944e-01 6.209719e+00 0.000000e+00  -3.685418e-01 6.153423e+00 0.000000e+00  -4.731412e-01 6.078763e+00 0.000000e+00  -5.797819e-01 5.985356e+00 0.000000e+00  -6.882413e-01 5.872860e+00 0.000000e+00  -7.982848e-01 5.740972e+00 0.000000e+00  -9.096657e-01 5.589434e+00 0.000000e+00  -1.022126e+00 5.418030e+00 0.000000e+00  -1.135398e+00 5.226593e+00 0.000000e+00  -1.249200e+00 5.015003e+00 0.000000e+00  -1.363243e+00 4.783191e+00 0.000000e+00  -1.477228e+00 4.531140e+00 0.000000e+00  -1.590844e+00 4.258889e+00 0.000000e+00  -1.703773e+00 3.966530e+00 0.000000e+00  -1.815689e+00 3.654214e+00 0.000000e+00  -1.926259e+00 3.322149e+00 0.000000e+00  -2.035139e+00 2.970606e+00 0.000000e+00  -2.141984e+00 2.599912e+00 0.000000e+00  -2.246440e+00 2.210461e+00 0.000000e+00  -2.348149e+00 1.802707e+00 0.000000e+00  -2.446748e+00 1.377169e+00 0.000000e+00  -2.541874e+00 9.344297e-01 0.000000e+00  -2.633157e+00 4.751358e-01 0.000000e+00  -2.720230e+00 0.000000e+00 0.000000e+00  1.181981e+00 0.000000e+00 0.000000e+00  1.217764e+00 1.833207e-01 0.000000e+00  1.251410e+00 3.719526e-01 0.000000e+00  1.282759e+00 5.655565e-01 0.000000e+00  1.311655e+00 7.637687e-01 0.000000e+00  1.337939e+00 9.662021e-01 0.000000e+00  1.361460e+00 1.172445e+00 0.000000e+00  1.382065e+00 1.382065e+00 0.000000e+00  1.399605e+00 1.594602e+00 0.000000e+00  1.413936e+00 1.809579e+00 0.000000e+00  1.424917e+00 2.026494e+00 0.000000e+00  1.432412e+00 2.244824e+00 0.000000e+00  1.436289e+00 2.464026e+00 0.000000e+00  1.436424e+00 2.683538e+00 0.000000e+00  1.432697e+00 2.902779e+00 0.000000e+00  1.424995e+00 3.121149e+00 0.000000e+00  1.413212e+00 3.338034e+00 0.000000e+00  1.397252e+00 3.552801e+00 0.000000e+00  1.377023e+00 3.764806e+00 0.000000e+00  1.352445e+00 3.973390e+00 0.000000e+00  1.323446e+00 4.177882e+00 0.000000e+00  1.289964e+00 4.377603e+00 0.000000e+00  1.251946e+00 4.571862e+00 0.000000e+00  1.209351e+00 4.759963e+00 0.000000e+00  1.162149e+00 4.941204e+00 0.000000e+00  1.110320e+00 5.114880e+00 0.000000e+00  1.053857e+00 5.280283e+00 0.000000e+00  9.927657e-01 5.436704e+00 0.000000e+00  9.270628e-01 5.583438e+00 0.000000e+00  8.567794e-01 5.719782e+00 0.000000e+00  7.819596e-01 5.845039e+00 0.000000e+00  7.026608e-01 5.958520e+00 0.000000e+00  6.189548e-01 6.059545e+00 0.000000e+00  5.309272e-01 6.147448e+00 0.000000e+00  4.386781e-01 6.221576e+00 0.000000e+00  3.423221e-01 6.281291e+00 0.000000e+00  2.419886e-01 6.325976e+00 0.000000e+00  1.378218e-01 6.355034e+00 0.000000e+00  2.998076e-02 6.367890e