<?xml version="1.0"?>
<VTKFile type="UnstructuredGrid"  version="0.1"  >
<UnstructuredGrid>
<Piece  NumberOfPoints="1089" NumberOfCells="2048">
<Points>
<DataArray  type="Float32"  NumberOfComponents="3"  format="ascii">0 0 0  0.03125 0 0  0.0625 0 0  0.09375 0 0  0.125 0 0  0.15625 0 0  0.1875 0 0  0.21875 0 0  0.25 0 0  0.28125 0 0  0.3125 0 0  0.34375 0 0  0.375 0 0  0.40625 0 0  0.4375 0 0  0.46875 0 0  0.5 0 0  0.53125 0 0  0.5625 0 0  0.59375 0 0  0.625 0 0  0.65625 0 0  0.6875 0 0  0.71875 0 0  0.75 0 0  0.78125 0 0  0.8125 0 0  0.84375 0 0  0.875 0 0  0.90625 0 0  0.9375 0 0  0.96875 0 0  1 0 0  0 0.03125 0  0.03125 0.03125 0  0.0625 0.03125 0  0.09375 0.03125 0  0.125 0.03125 0  0.15625 0.03125 0  0.1875 0.03125 0  0.21875 0.03125 0  0.25 0.03125 0  0.28125 0.03125 0  0.3125 0.03125 0  0.34375 0.03125 0  0.375 0.03125 0  0.40625 0.03125 0  0.4375 0.03125 0  0.46875 0.03125 0  0.5 0.03125 0  0.53125 0.03125 0  0.5625 0.03125 0  0.59375 0.03125 0  0.625 0.03125 0  0.65625 0.03125 0  0.6875 0.03125 0  0.71875 0.03125 0  0.75 0.03125 0  0.78125 0.03125 0  0.8125 0.03125 0  0.84375 0.03125 0  0.875 0.03125 0  0.90625 0.03125 0  0.9375 0.03125 0  0.96875 0.03125 0  1 0.03125 0  0 0.0625 0  0.03125 0.0625 0  0.0625 0.0625 0  0.09375 0.0625 0  0.125 0.0625 0  0.15625 0.0625 0  0.1875 0.0625 0  0.21875 0.0625 0  0.25 0.0625 0  0.28125 0.0625 0  0.3125 0.0625 0  0.34375 0.0625 0  0.375 0.0625 0  0.40625 0.0625 0  0.4375 0.0625 0  0.46875 0.0625 0  0.5 0.0625 0  0.53125 0.0625 0  0.5625 0.0625 0  0.59375 0.0625 0  0.625 0.0625 0  0.65625 0.0625 0  0.6875 0.0625 0  0.71875 0.0625 0  0.75 0.0625 0  0.78125 0.0625 0  0.8125 0.0625 0  0.84375 0.0625 0  0.875 0.0625 0  0.90625 0.0625 0  0.9375 0.0625 0  0.96875 0.0625 0  1 0.0625 0  0 0.09375 0  0.03125 0.09375 0  0.0625 0.09375 0  0.09375 0.09375 0  0.125 0.09375 0  0.15625 0.09375 0  0.1875 0.09375 0  0.21875 0.09375 0  0.25 0.09375 0  0.28125 0.09375 0  0.3125 0.09375 0  0.34375 0.09375 0  0.375 0.09375 0  0.40625 0.09375 0  0.4375 0.09375 0  0.46875 0.09375 0  0.5 0.09375 0  0.53125 0.09375 0  0.5625 0.09375 0  0.59375 0.09375 0  0.625 0.09375 0  0.65625 0.09375 0  0.6875 0.09375 0  0.71875 0.09375 0  0.75 0.09375 0  0.78125 0.09375 0  0.8125 0.09375 0  0.84375 0.09375 0  0.875 0.09375 0  0.90625 0.09375 0  0.9375 0.09375 0  0.96875 0.09375 0  1 0.09375 0  0 0.125 0  0.03125 0.125 0  0.0625 0.125 0  0.09375 0.125 0  0.125 0.125 0  0.15625 0.125 0  0.1875 0.125 0  0.21875 0.125 0  0.25 0.125 0  0.28125 0.125 0  0.3125 0.125 0  0.34375 0.125 0  0.375 0.125 0  0.40625 0.125 0  0.4375 0.125 0  0.46875 0.125 0  0.5 0.125 0  0.53125 0.125 0  0.5625 0.125 0  0.59375 0.125 0  0.625 0.125 0  0.65625 0.125 0  0.6875 0.125 0  0.71875 0.125 0  0.75 0.125 0  0.78125 0.125 0  0.8125 0.125 0  0.84375 0.125 0  0.875 0.125 0  0.90625 0.125 0  0.9375 0.125 0  0.96875 0.125 0  1 0.125 0  0 0.15625 0  0.03125 0.15625 0  0.0625 0.15625 0  0.09375 0.15625 0  0.125 0.15625 0  0.15625 0.15625 0  0.1875 0.15625 0  0.21875 0.15625 0  0.25 0.15625 0  0.28125 0.15625 0  0.3125 0.15625 0  0.34375 0.15625 0  0.375 0.15625 0  0.40625 0.15625 0  0.4375 0.15625 0  0.46875 0.15625 0  0.5 0.15625 0  0.53125 0.15625 0  0.5625 0.15625 0  0.59375 0.15625 0  0.625 0.15625 0  0.65625 0.15625 0  0.6875 0.15625 0  0.71875 0.15625 0  0.75 0.15625 0  0.78125 0.15625 0  0.8125 0.15625 0  0.84375 0.15625 0  0.875 0.15625 0  0.90625 0.15625 0  0.9375 0.15625 0  0.96875 0.15625 0  1 0.15625 0  0 0.1875 0  0.03125 0.1875 0  0.0625 0.1875 0  0.09375 0.1875 0  0.125 0.1875 0  0.15625 0.1875 0  0.1875 0.1875 0  0.21875 0.1875 0  0.25 0.1875 0  0.28125 0.1875 0  0.3125 0.1875 0  0.34375 0.1875 0  0.375 0.1875 0  0.40625 0.1875 0  0.4375 0.1875 0  0.46875 0.1875 0  0.5 0.1875 0  0.53125 0.1875 0  0.5625 0.1875 0  0.59375 0.1875 0  0.625 0.1875 0  0.65625 0.1875 0  0.6875 0.1875 0  0.71875 0.1875 0  0.75 0.1875 0  0.78125 0.1875 0  0.8125 0.1875 0  0.84375 0.1875 0  0.875 0.1875 0  0.90625 0.1875 0  0.9375 0.1875 0  0.96875 0.1875 0  1 0.1875 0  0 0.21875 0  0.03125 0.21875 0  0.0625 0.21875 0  0.09375 0.21875 0  0.125 0.21875 0  0.15625 0.21875 0  0.1875 0.21875 0  0.21875 0.21875 0  0.25 0.21875 0  0.28125 0.21875 0  0.3125 0.21875 0  0.34375 0.21875 0  0.375 0.21875 0  0.40625 0.21875 0  0.4375 0.21875 0  0.46875 0.21875 0  0.5 0.21875 0  0.53125 0.21875 0  0.5625 0.21875 0  0.59375 0.21875 0  0.625 0.21875 0  0.65625 0.21875 0  0.6875 0.21875 0  0.71875 0.21875 0  0.75 0.21875 0  0.78125 0.21875 0  0.8125 0.21875 0  0.84375 0.21875 0  0.875 0.21875 0  0.90625 0.21875 0  0.9375 0.21875 0  0.96875 0.21875 0  1 0.21875 0  0 0.25 0  0.03125 0.25 0  0.0625 0.25 0  0.09375 0.25 0  0.125 0.25 0  0.15625 0.25 0  0.1875 0.25 0  0.21875 0.25 0  0.25 0.25 0  0.28125 0.25 0  0.3125 0.25 0  0.34375 0.25 0  0.375 0.25 0  0.40625 0.25 0  0.4375 0.25 0  0.46875 0.25 0  0.5 0.25 0  0.53125 0.25 0  0.5625 0.25 0  0.59375 0.25 0  0.625 0.25 0  0.65625 0.25 0  0.6875 0.25 0  0.71875 0.25 0  0.75 0.25 0  0.78125 0.25 0  0.8125 0.25 0  0.84375 0.25 0  0.875 0.25 0  0.90625 0.25 0  0.9375 0.25 0  0.96875 0.25 0  1 0.25 0  0 0.28125 0  0.03125 0.28125 0  0.0625 0.28125 0  0.09375 0.28125 0  0.125 0.28125 0  0.15625 0.28125 0  0.1875 0.28125 0  0.21875 0.28125 0  0.25 0.28125 0  0.28125 0.28125 0  0.3125 0.28125 0  0.34375 0.28125 0  0.375 0.28125 0  0.40625 0.28125 0  0.4375 0.28125 0  0.46875 0.28125 0  0.5 0.28125 0  0.53125 0.28125 0  0.5625 0.28125 0  0.59375 0.28125 0  0.625 0.28125 0  0.65625 0.28125 0  0.6875 0.28125 0  0.71875 0.28125 0  0.75 0.28125 0  0.78125 0.28125 0  0.8125 0.28125 0  0.84375 0.28125 0  0.875 0.28125 0  0.90625 0.28125 0  0.9375 0.28125 0  0.96875 0.28125 0  1 0.28125 0  0 0.3125 0  0.03125 0.3125 0  0.0625 0.3125 0  0.09375 0.3125 0  0.125 0.3125 0  0.15625 0.3125 0  0.1875 0.3125 0  0.21875 0.3125 0  0.25 0.3125 0  0.28125 0.3125 0  0.3125 0.3125 0  0.34375 0.3125 0  0.375 0.3125 0  0.40625 0.3125 0  0.4375 0.3125 0  0.46875 0.3125 0  0.5 0.3125 0  0.53125 0.3125 0  0.5625 0.3125 0  0.59375 0.3125 0  0.625 0.3125 0  0.65625 0.3125 0  0.6875 0.3125 0  0.71875 0.3125 0  0.75 0.3125 0  0.78125 0.3125 0  0.8125 0.3125 0  0.84375 0.3125 0  0.875 0.3125 0  0.90625 0.3125 0  0.9375 0.3125 0  0.96875 0.3125 0  1 0.3125 0  0 0.34375 0  0.03125 0.34375 0  0.0625 0.34375 0  0.09375 0.34375 0  0.125 0.34375 0  0.15625 0.34375 0  0.1875 0.34375 0  0.21875 0.34375 0  0.25 0.34375 0  0.28125 0.34375 0  0.3125 0.34375 0  0.34375 0.34375 0  0.375 0.34375 0  0.40625 0.34375 0  0.4375 0.34375 0  0.46875 0.34375 0  0.5 0.34375 0  0.53125 0.34375 0  0.5625 0.34375 0  0.59375 0.34375 0  0.625 0.34375 0  0.65625 0.34375 0  0.6875 0.34375 0  0.71875 0.34375 0  0.75 0.34375 0  0.78125 0.34375 0  0.8125 0.34375 0  0.84375 0.34375 0  0.875 0.34375 0  0.90625 0.34375 0  0.9375 0.34375 0  0.96875 0.34375 0  1 0.34375 0  0 0.375 0  0.03125 0.375 0  0.0625 0.375 0  0.09375 0.375 0  0.125 0.375 0  0.15625 0.375 0  0.1875 0.375 0  0.21875 0.375 0  0.25 0.375 0  0.28125 0.375 0  0.3125 0.375 0  0.34375 0.375 0  0.375 0.375 0  0.40625 0.375 0  0.4375 0.375 0  0.46875 0.375 0  0.5 0.375 0  0.53125 0.375 0  0.5625 0.375 0  0.59375 0.375 0  0.625 0.375 0  0.65625 0.375 0  0.6875 0.375 0  0.71875 0.375 0  0.75 0.375 0  0.78125 0.375 0  0.8125 0.375 0  0.84375 0.375 0  0.875 0.375 0  0.90625 0.375 0  0.9375 0.375 0  0.96875 0.375 0  1 0.375 0  0 0.40625 0  0.03125 0.40625 0  0.0625 0.40625 0  0.09375 0.40625 0  0.125 0.40625 0  0.15625 0.40625 0  0.1875 0.40625 0  0.21875 0.40625 0  0.25 0.40625 0  0.28125 0.40625 0  0.3125 0.40625 0  0.34375 0.40625 0  0.375 0.40625 0  0.40625 0.40625 0  0.4375 0.40625 0  0.46875 0.40625 0  0.5 0.40625 0  0.53125 0.40625 0  0.5625 0.40625 0  0.59375 0.40625 0  0.625 0.40625 0  0.65625 0.40625 0  0.6875 0.40625 0  0.71875 0.40625 0  0.75 0.40625 0  0.78125 0.40625 0  0.8125 0.40625 0  0.84375 0.40625 0  0.875 0.40625 0  0.90625 0.40625 0  0.9375 0.40625 0  0.96875 0.40625 0  1 0.40625 0  0 0.4375 0  0.03125 0.4375 0  0.0625 0.4375 0  0.09375 0.4375 0  0.125 0.4375 0  0.15625 0.4375 0  0.1875 0.4375 0  0.21875 0.4375 0  0.25 0.4375 0  0.28125 0.4375 0  0.3125 0.4375 0  0.34375 0.4375 0  0.375 0.4375 0  0.40625 0.4375 0  0.4375 0.4375 0  0.46875 0.4375 0  0.5 0.4375 0  0.53125 0.4375 0  0.5625 0.4375 0  0.59375 0.4375 0  0.625 0.4375 0  0.65625 0.4375 0  0.6875 0.4375 0  0.71875 0.4375 0  0.75 0.4375 0  0.78125 0.4375 0  0.8125 0.4375 0  0.84375 0.4375 0  0.875 0.4375 0  0.90625 0.4375 0  0.9375 0.4375 0  0.96875 0.4375 0  1 0.4375 0  0 0.46875 0  0.03125 0.46875 0  0.0625 0.46875 0  0.09375 0.46875 0  0.125 0.46875 0  0.15625 0.46875 0  0.1875 0.46875 0  0.21875 0.46875 0  0.25 0.46875 0  0.28125 0.46875 0  0.3125 0.46875 0  0.34375 0.46875 0  0.375 0.46875 0  0.40625 0.46875 0  0.4375 0.46875 0  0.46875 0.46875 0  0.5 0.46875 0  0.53125 0.46875 0  0.5625 0.46875 0  0.59375 0.46875 0  0.625 0.46875 0  0.65625 0.46875 0  0.6875 0.46875 0  0.71875 0.46875 0  0.75 0.46875 0  0.78125 0.46875 0  0.8125 0.46875 0  0.84375 0.46875 0  0.875 0.46875 0  0.90625 0.46875 0  0.9375 0.46875 0  0.96875 0.46875 0  1 0.46875 0  0 0.5 0  0.03125 0.5 0  0.0625 0.5 0  0.09375 0.5 0  0.125 0.5 0  0.15625 0.5 0  0.1875 0.5 0  0.21875 0.5 0  0.25 0.5 0  0.28125 0.5 0  0.3125 0.5 0  0.34375 0.5 0  0.375 0.5 0  0.40625 0.5 0  0.4375 0.5 0  0.46875 0.5 0  0.5 0.5 0  0.53125 0.5 0  0.5625 0.5 0  0.59375 0.5 0  0.625 0.5 0  0.65625 0.5 0  0.6875 0.5 0  0.71875 0.5 0  0.75 0.5 0  0.78125 0.5 0  0.8125 0.5 0  0.84375 0.5 0  0.875 0.5 0  0.90625 0.5 0  0.9375 0.5 0  0.96875 0.5 0  1 0.5 0  0 0.53125 0  0.03125 0.53125 0  0.0625 0.53125 0  0.09375 0.53125 0  0.125 0.53125 0  0.15625 0.53125 0  0.1875 0.53125 0  0.21875 0.53125 0  0.25 0.53125 0  0.28125 0.53125 0  0.3125 0.53125 0  0.34375 0.53125 0  0.375 0.53125 0  0.40625 0.53125 0  0.4375 0.53125 0  0.46875 0.53125 0  0.5 0.53125 0  0.53125 0.53125 0  0.5625 0.53125 0  0.59375 0.53125 0  0.625 0.53125 0  0.65625 0.53125 0  0.6875 0.53125 0  0.71875 0.53125 0  0.75 0.53125 0  0.78125 0.531
[...]
<PointData  Vectors="u"> 
<DataArray  type="Float32"  Name="u"  NumberOfComponents="3" format="ascii">0.000000e+00 0.000000e+00 0.000000e+00  0.000000e+00 3.176919e-01 0.000000e+00  0.000000e+00 6.524037e-01 0.000000e+00  0.000000e+00 1.001563e+00 0.000000e+00  0.000000e+00 1.362280e+00 0.000000e+00  0.000000e+00 1.731353e+00 0.000000e+00  0.000000e+00 2.105281e+00 0.000000e+00  0.000000e+00 2.480285e+00 0.000000e+00  0.000000e+00 2.852331e+00 0.000000e+00  0.000000e+00 3.217156e+00 0.000000e+00  0.000000e+00 3.570303e+00 0.000000e+00  0.000000e+00 3.907152e+00 0.000000e+00  0.000000e+00 4.222967e+00 0.000000e+00  0.000000e+00 4.512934e+00 0.000000e+00  0.000000e+00 4.772213e+00 0.000000e+00  0.000000e+00 4.995988e+00 0.000000e+00  0.000000e+00 5.179520e+00 0.000000e+00  0.000000e+00 5.318204e+00 0.000000e+00  0.000000e+00 5.407631e+00 0.000000e+00  0.000000e+00 5.443645e+00 0.000000e+00  0.000000e+00 5.422406e+00 0.000000e+00  0.000000e+00 5.340456e+00 0.000000e+00  0.000000e+00 5.194775e+00 0.000000e+00  0.000000e+00 4.982847e+00 0.000000e+00  0.000000e+00 4.702720e+00 0.000000e+00  0.000000e+00 4.353059e+00 0.000000e+00  0.000000e+00 3.933209e+00 0.000000e+00  0.000000e+00 3.443235e+00 0.000000e+00  0.000000e+00 2.883978e+00 0.000000e+00  0.000000e+00 2.257091e+00 0.000000e+00  0.000000e+00 1.565071e+00 0.000000e+00  0.000000e+00 8.112916e-01 0.000000e+00  0.000000e+00 0.000000e+00 0.000000e+00  3.176919e-01 0.000000e+00 0.000000e+00  3.364348e-01 3.364348e-01 0.000000e+00  3.526944e-01 6.908900e-01 0.000000e+00  3.661429e-01 1.060645e+00 0.000000e+00  3.764519e-01 1.442639e+00 0.000000e+00  3.833059e-01 1.833481e+00 0.000000e+00  3.864071e-01 2.229466e+00 0.000000e+00  3.854794e-01 2.626590e+00 0.000000e+00  3.802734e-01 3.020581e+00 0.000000e+00  3.705699e-01 3.406926e+00 0.000000e+00  3.561851e-01 3.780902e+00 0.000000e+00  3.369745e-01 4.137620e+00 0.000000e+00  3.128371e-01 4.472063e+00 0.000000e+00  2.837194e-01 4.779134e+00 0.000000e+00  2.496187e-01 5.053707e+00 0.000000e+00  2.105870e-01 5.290681e+00 0.000000e+00  1.667333e-01 5.485037e+00 0.000000e+00  1.182265e-01 5.631901e+00 0.000000e+00  6.529748e-02 5.726602e+00 0.000000e+00  8.240226e-03 5.764740e+00 0.000000e+00  -5.258708e-02 5.742248e+00 0.000000e+00  -1.167619e-01 5.655463e+00 0.000000e+00  -1.837978e-01 5.501188e+00 0.000000e+00  -2.531457e-01 5.276759e+00 0.000000e+00  -3.241957e-01 4.980107e+00 0.000000e+00  -3.962801e-01 4.609821e+00 0.000000e+00  -4.686766e-01 4.165204e+00 0.000000e+00  -5.406132e-01 3.646329e+00 0.000000e+00  -6.112729e-01 3.054084e+00 0.000000e+00  -6.797999e-01 2.390218e+00 0.000000e+00  -7.453069e-01 1.657379e+00 0.000000e+00  -8.068817e-01 8.591370e-01 0.000000e+00  -8.636234e-01 0.000000e+00 0.000000e+00  6.524037e-01 0.000000e+00 0.000000e+00  6.908900e-01 3.526944e-01 0.000000e+00  7.242804e-01 7.242804e-01 0.000000e+00  7.518979e-01 1.111905e+00 0.000000e+00  7.730678e-01 1.512361e+00 0.000000e+00  7.871428e-01 1.922093e+00 0.000000e+00  7.935111e-01 2.337215e+00 0.000000e+00  7.916061e-01 2.753532e+00 0.000000e+00  7.809150e-01 3.166564e+00 0.000000e+00  7.609881e-01 3.571581e+00 0.000000e+00  7.314478e-01 3.963631e+00 0.000000e+00  6.919975e-01 4.337589e+00 0.000000e+00  6.424298e-01 4.688196e+00 0.000000e+00  5.826345e-01 5.010107e+00 0.000000e+00  5.126065e-01 5.297949e+00 0.000000e+00  4.324522e-01 5.546376e+00 0.000000e+00  3.423956e-01 5.750126e+00 0.000000e+00  2.427838e-01 5.904088e+00 0.000000e+00  1.340906e-01 6.003366e+00 0.000000e+00  1.691977e-02 6.043346e+00 0.000000e+00  -1.079930e-01 6.019767e+00 0.000000e+00  -2.397802e-01 5.928788e+00 0.000000e+00  -3.774427e-01 5.767057e+00 0.000000e+00  -5.198529e-01 5.531781e+00 0.000000e+00  -6.657587e-01 5.220793e+00 0.000000e+00  -8.137885e-01 4.832611e+00 0.000000e+00  -9.624594e-01 4.366506e+00 0.000000e+00  -1.110186e+00 3.822553e+00 0.000000e+00  -1.255290e+00 3.201685e+00 0.000000e+00  -1.396014e+00 2.505736e+00 0.000000e+00  -1.530537e+00 1.737479e+00 0.000000e+00  -1.656986e+00 9.006589e-01 0.000000e+00  -1.773499e+00 0.000000e+00 0.000000e+00  1.001563e+00 0.000000e+00 0.000000e+00  1.060645e+00 3.661429e-01 0.000000e+00  1.111905e+00 7.518979e-01 0.000000e+00  1.154303e+00 1.154303e+00 0.000000e+00  1.186803e+00 1.570029e+00 0.000000e+00  1.208411e+00 1.995384e+00 0.000000e+00  1.218187e+00 2.426335e+00 0.000000e+00  1.215262e+00 2.858526e+00 0.000000e+00  1.198849e+00 3.287308e+00 0.000000e+00  1.168258e+00 3.707768e+00 0.000000e+00  1.122908e+00 4.114768e+00 0.000000e+00  1.062344e+00 4.502985e+00 0.000000e+00  9.862486e-01 4.866960e+00 0.000000e+00  8.944516e-01 5.201146e+00 0.000000e+00  7.869455e-01 5.499964e+00 0.000000e+00  6.638936e-01 5.757864e+00 0.000000e+00  5.256400e-01 5.969383e+00 0.000000e+00  3.727173e-01 6.129215e+00 0.000000e+00  2.058529e-01 6.232278e+00 0.000000e+00  2.597392e-02 6.273783e+00 0.000000e+00  -1.657905e-01 6.249305e+00 0.000000e+00  -3.681083e-01 6.154857e+00 0.000000e+00  -5.794459e-01 5.986959e+00 0.000000e+00  -7.980721e-01 5.742712e+00 0.000000e+00  -1.022065e+00 5.419865e+00 0.000000e+00  -1.249318e+00 5.016882e+00 0.000000e+00  -1.477555e+00 4.533004e+00 0.000000e+00  -1.704343e+00 3.968310e+00 0.000000e+00  -1.927104e+00 3.323768e+00 0.000000e+00  -2.143143e+00 2.601281e+00 0.000000e+00  -2.349660e+00 1.803730e+00 0.000000e+00  -2.543782e+00 9.350015e-01 0.000000e+00  -2.722647e+00 0.000000e+00 0.000000e+00  1.362280e+00 0.000000e+00 0.000000e+00  1.442639e+00 3.764519e-01 0.000000e+00  1.512361e+00 7.730678e-01 0.000000e+00  1.570029e+00 1.186803e+00 0.000000e+00  1.614233e+00 1.614233e+00 0.000000e+00  1.643623e+00 2.051564e+00 0.000000e+00  1.656920e+00 2.494649e+00 0.000000e+00  1.652942e+00 2.939009e+00 0.000000e+00  1.630618e+00 3.379863e+00 0.000000e+00  1.589009e+00 3.812161e+00 0.000000e+00  1.527326e+00 4.230620e+00 0.000000e+00  1.444950e+00 4.629768e+00 0.000000e+00  1.341448e+00 5.003991e+00 0.000000e+00  1.216590e+00 5.347586e+00 0.000000e+00  1.070366e+00 5.654817e+00 0.000000e+00  9.029962e-01 5.919978e+00 0.000000e+00  7.149501e-01 6.137452e+00 0.000000e+00  5.069518e-01 6.301785e+00 0.000000e+00  2.799907e-01 6.407750e+00 0.000000e+00  3.532774e-02 6.450423e+00 0.000000e+00  -2.255012e-01 6.425256e+00 0.000000e+00  -5.006843e-01 6.328148e+00 0.000000e+00  -7.881358e-01 6.155523e+00 0.000000e+00  -1.085501e+00 5.904399e+00 0.000000e+00  -1.390165e+00 5.572462e+00 0.000000e+00  -1.699264e+00 5.158133e+00 0.000000e+00  -2.009702e+00 4.660631e+00 0.000000e+00  -2.318167e+00 4.080038e+00 0.000000e+00  -2.621157e+00 3.417349e+00 0.000000e+00  -2.915002e+00 2.674520e+00 0.000000e+00  -3.195897e+00 1.854514e+00 0.000000e+00  -3.459933e+00 9.613264e-01 0.000000e+00  -3.703213e+00 0.000000e+00 0.000000e+00  1.731353e+00 0.000000e+00 0.000000e+00  1.833481e+00 3.833059e-01 0.000000e+00  1.922093e+00 7.871428e-01 0.000000e+00  1.995384e+00 1.208411e+00 0.000000e+00  2.051564e+00 1.643623e+00 0.000000e+00  2.088916e+00 2.088916e+00 0.000000e+00  2.105816e+00 2.540068e+00 0.000000e+00  2.100761e+00 2.992518e+00 0.000000e+00  2.072388e+00 3.441399e+00 0.000000e+00  2.019506e+00 3.881567e+00 0.000000e+00  1.941112e+00 4.307645e+00 0.000000e+00  1.836419e+00 4.714060e+00 0.000000e+00  1.704876e+00 5.095096e+00 0.000000e+00  1.546191e+00 5.444946e+00 0.000000e+00  1.360351e+00 5.757772e+00 0.000000e+00  1.147637e+00 6.027760e+00 0.000000e+00  9.086453e-01 6.249193e+00 0.000000e+00  6.442956e-01 6.416518e+00 0.000000e+00  3.558458e-01 6.524412e+00 0.000000e+00  4.489820e-02 6.567862e+00 0.000000e+00  -2.865951e-01 6.542237e+00 0.000000e+00  -6.363314e-01 6.443361e+00 0.000000e+00  -1.001660e+00 6.267593e+00 0.000000e+00  -1.379588e+00 6.011898e+00 0.000000e+00  -1.766792e+00 5.673917e+00 0.000000e+00  -2.159633e+00 5.252044e+00 0.000000e+00  -2.554175e+00 4.745485e+00 0.000000e+00  -2.946210e+00 4.154321e+00 0.000000e+00  -3.331286e+00 3.479566e+00 0.000000e+00  -3.704741e+00 2.723214e+00 0.000000e+00  -4.061737e+00 1.888278e+00 0.000000e+00  -4.397306e+00 9.788285e-01 0.000000e+00  -4.706492e+00 0.000000e+00 0.000000e+00  2.105281e+00 0.000000e+00 0.000000e+00  2.229466e+00 3.864071e-01 0.000000e+00  2.337215e+00 7.935111e-01 0.000000e+00  2.426335e+00 1.218187e+00 0.000000e+00  2.494649e+00 1.656920e+00 0.000000e+00  2.540068e+00 2.105816e+00 0.000000e+00  2.560618e+00 2.560618e+00 0.000000e+00  2.554470e+00 3.016728e+00 0.000000e+00  2.519970e+00 3.469241e+00 0.000000e+00  2.455667e+00 3.912970e+00 0.000000e+00  2.360342e+00 4.342495e+00 0.000000e+00  2.233037e+00 4.752198e+00 0.000000e+00  2.073084e+00 5.136317e+00 0.000000e+00  1.880128e+00 5.488998e+00 0.000000e+00  1.654151e+00 5.804354e+00 0.000000e+00  1.395497e+00 6.076526e+00 0.000000e+00  1.104889e+00 6.299751e+00 0.000000e+00  7.834462e-01 6.468429e+00 0.000000e+00  4.326987e-01 6.577196e+00 0.000000e+00  5.459453e-02 6.620998e+00 0.000000e+00  -3.484927e-01 6.595165e+00 0.000000e+00  -7.737629e-01 6.495490e+00 0.000000e+00  -1.217993e+00 6.318300e+00 0.000000e+00  -1.677543e+00 6.060535e+00 0.000000e+00  -2.148373e+00 5.719820e+00 0.000000e+00  -2.626058e+00 5.294534e+00 0.000000e+00  -3.105811e+00 4.783877e+00 0.000000e+00  -3.582515e+00 4.187930e+00 0.000000e+00  -4.050758e+00 3.507717e+00 0.000000e+00  -4.504869e+00 2.745245e+00 0.000000e+00  -4.938967e+00 1.903554e+00 0.000000e+00  -5.347009e+00 9.867472e-01 0.000000e+00  -5.722970e+00 0.000000e+00 0.000000e+00  2.480285e+00 0.000000e+00 0.000000e+00  2.626590e+00 3.854794e-01 0.000000e+00  2.753532e+00 7.916061e-01 0.000000e+00  2.858526e+00 1.215262e+00 0.000000e+00  2.939009e+00 1.652942e+00 0.000000e+00  2.992518e+00 2.100761e+00 0.000000e+00  3.016728e+00 2.554470e+00 0.000000e+00  3.009485e+00 3.009485e+00 0.000000e+00  2.968840e+00 3.460911e+00 0.000000e+00  2.893083e+00 3.903576e+00 0.000000e+00  2.780778e+00 4.332069e+00 0.000000e+00  2.630797e+00 4.740788e+00 0.000000e+00  2.442353e+00 5.123985e+00 0.000000e+00  2.215026e+00 5.475819e+00 0.000000e+00  1.948796e+00 5.790418e+00 0.000000e+00  1.644069e+00 6.061937e+00 0.000000e+00  1.301697e+00 6.284626e+00 0.000000e+00  9.229973e-01 6.452899e+00 0.000000e+00  5.097728e-01 6.561405e+00 0.000000e+00  6.431873e-02 6.605101e+00 0.000000e+00  -4.105685e-01 6.579331e+00 0.000000e+00  -9.115901e-01 6.479894e+00 0.000000e+00  -1.434948e+00 6.303130e+00 0.000000e+00  -1.976356e+00 6.045984e+00 0.000000e+00  -2.531053e+00 5.706087e+00 0.000000e+00  -3.093825e+00 5.281822e+00 0.000000e+00  -3.659034e+00 4.772391e+00 0.000000e+00  -4.220652e+00 4.177875e+00 0.000000e+00  -4.772301e+00 3.499295e+00 0.000000e+00  -5.307300e+00 2.738653e+00 0.000000e+00  -5.818721e+00 1.898984e+00 0.000000e+00  -6.299447e+00 9.843777e-01 0.000000e+00  -6.742373e+00 0.000000e+00 0.000000e+00  2.852331e+00 0.000000e+00 0.000000e+00  3.020581e+00 3.802734e-01 0.000000e+00  3.166564e+00 7.809150e-01 0.000000e+00  3.287308e+00 1.198849e+00 0.000000e+00  3.379863e+00 1.630618e+00 0.000000e+00  3.441399e+00 2.072388e+00 0.000000e+00  3.469241e+00 2.519970e+00 0.000000e+00  3.460911e+00 2.968840e+00 0.000000e+00  3.414169e+00 3.414169e+00 0.000000e+00  3.327048e+00 3.850855e+00 0.000000e+00  3.197897e+00 4.273561e+00 0.000000e+00  3.025419e+00 4.676760e+00 0.000000e+00  2.808708e+00 5.054781e+00 0.000000e+00  2.547281e+00 5.401863e+00 0.000000e+00  2.241117e+00 5.712213e+00 0.000000e+00  1.890681e+00 5.980065e+00 0.000000e+00  1.496952e+00 6.199747e+00 0.000000e+00  1.061447e+00 6.365747e+00 0.000000e+00  5.862388e-01 6.472788e+00 0.000000e+00  7.396619e-02 6.515894e+00 0.000000e+00  -4.721546e-01 6.490471e+00 0.000000e+00  -1.048330e+00 6.392378e+00 0.000000e+00  -1.650193e+00 6.218001e+00 0.000000e+00  -2.272812e+00 5.964328e+00 0.000000e+00  -2.910714e+00 5.629022e+00 0.000000e+00  -3.557902e+00 5.210487e+00 0.000000e+00  -4.207894e+00 4.707935e+00 0.000000e+00  -4.853755e+00 4.121449e+00 0.000000e+00  -5.488151e+00 3.452033e+00 0.000000e+00  -6.103401e+00 2.701665e+00 0.000000e+00  -6.691536e+00 1.873336e+00 0.000000e+00  -7.244370e+00 9.710825e-01 0.000000e+00  -7.753735e+00 0.000000e+00 0.000000e+00  3.217156e+00 0.000000e+00 0.000000e+00  3.406926e+00 3.705699e-01 0.000000e+00  3.571581e+00 7.609881e-01 0.000000e+00  3.707768e+00 1.168258e+00 0.000000e+00  3.812161e+00 1.589009e+00 0.000000e+00  3.881567e+00 2.019506e+00 0.000000e+00  3.912970e+00 2.455667e+00 0.000000e+00  3.903576e+00 2.893083e+00 0.000000e+00  3.850855e+00 3.327048e+00 0.000000e+00  3.752590e+00 3.752590e+00 0.000000e+00  3.606921e+00 4.164510e+00 0.000000e+00  3.412382e+00 4.557420e+00 0.000000e+00  3.167952e+00 4.925795e+00 0.000000e+00  2.873089e+00 5.264021e+00 0.000000e+00  2.527765e+00 5.566452e+00 0.000000e+00  2.132506e+00 5.827468e+00 0.000000e+00  1.688418e+00 6.041544e+00 0.000000e+00  1.197211e+00 6.203309e+00 0.000000e+00  6.612208e-01 6.307618e+00 0.000000e+00  8.342637e-02 6.349624e+00 0.000000e+00  -5.325455e-01 6.324850e+00 0.000000e+00  -1.182416e+00 6.229260e+00 0.000000e+00  -1.861259e+00 6.059332e+00 0.000000e+00  -2.563515e+00 5.812132e+00 0.000000e+00  -3.283007e+00 5.485382e+00 0.000000e+00  -4.012973e+00 5.077527e+00 0.000000e+00  -4.746100e+00 4.587800e+00 0.000000e+00  -5.474570e+00 4.016280e+00 0.000000e+00  -6.190108e+00 3.363946e+00 0.000000e+00  -6.884051e+00 2.632725e+00 0.000000e+00  -7.547410e+00 1.825533e+00 0.000000e+00  -8.170955e+00 9.463024e-01 0.000000e+00  -8.745467e+00 0.000000e+00 0.000000e+00  3.570303e+00 0.000000e+00 0.000000e+00  3.780902e+00 3.561851e-01 0.000000e+00  3.963631e+00 7.314478e-01 0.000000e+00  4.114768e+00 1.122908e+00 0.000000e+00  4.230620e+00 1.527326e+00 0.000000e+00  4.307645e+00 1.941112e+00 0.000000e+00  4.342495e+00 2.360342e+00 0.000000e+00  4.332069e+00 2.780778e+00 0.000000e+00  4.273561e+00 3.197897e+00 0.000000e+00  4.164510e+00 3.606921e+00 0.000000e+00  4.002850e+00 4.002850e+00 0.000000e+00  3.786957e+00 4.380508e+00 0.000000e+00  3.515697e+00 4.734584e+00 0.000000e+00  3.188466e+00 5.059680e+00 0.000000e+00  2.805236e+00 5.350370e+00 0.000000e+00  2.366590e+00 5.601255e+00 0.000000e+00  1.873755e+00 5.807020e+00 0.000000e+00  1.328627e+00 5.962505e+00 0.000000e+00  7.338023e-01 6.062765e+00 0.000000e+00  9.258368e-02 6.103141e+00 0.000000e+00  -5.910032e-01 6.079329e+00 0.000000e+00  -1.312210e+00 5.987449e+00 0.000000e+00  -2.065569e+00 5.824118e+00 0.000000e+00  -2.844911e+00 5.586514e+00 0.000000e+00  -3.643381e+00 5.272448e+00 0.000000e+00  -4.453475e+00 4.880425e+00 0.000000e+00  -5.267078e+00 4.409708e+00 0.000000e+00  -6.075511e+00 3.860373e+00 0.000000e+00  -6.869593e+00 3.233362e+00 0.000000e+00  -7.639710e+00 2.530526e+00 0.000000e+00  -8.375886e+00 1.754668e+00 0.000000e+00  -9.067876e+00 9.095679e-01 0.000000e+00  -9.705451e+00 0.000000e+00 0.000000e+00  3.907152e+00 0.000000e+00 0.000000e+00  4.137620e+00 3.369745e-01 0.000000e+00  4.337589e+00 6.919975e-01 0.000000e+00  4.502985e+00 1.062344e+00 0.000000e+00  4.629768e+00 1.444950e+00 0.000000e+00  4.714060e+00 1.836419e+00 0.000000e+00  4.752198e+00 2.233037e+00 0.000000e+00  4.740788e+00 2.630797e+00 0.000000e+00  4.676760e+00 3.025419e+00 0.000000e+00  4.557420e+00 3.412382e+00 0.000000e+00  4.380508e+00 3.786957e+00 0.000000e+00  4.144247e+00 4.144247e+00 0.000000e+00  3.847393e+00 4.479225e+00 0.000000e+00  3.489289e+00 4.786787e+00 0.000000e+00  3.069903e+00 5.061799e+00 0.000000e+00  2.589872e+00 5.299152e+00 0.000000e+00  2.050538e+00 5.493820e+00 0.000000e+00  1.453980e+00 5.640919e+00 0.000000e+00  8.030343e-01 5.735771e+00 0.000000e+00  1.013183e-01 5.773969e+00 0.000000e+00  -6.467631e-01 5.751441e+00 0.000000e+00  -1.436013e+00 5.664517e+00 0.000000e+00  -2.260450e+00 5.509995e+00 0.000000e+00  -3.113321e+00 5.285206e+00 0.000000e+00  -3.987125e+00 4.988079e+00 0.000000e+00  -4.873649e+00 4.617200e+00 0.000000e+00  -5.764013e+00 4.171871e+00 0.000000e+00  -6.648719e+00 3.652164e+00 0.000000e+00  -7.517722e+00 3.058971e+00 0.000000e+00  -8.360496e+00 2.394042e+00 0.000000e+00  -9.166129e+00 1.660030e+00 0.000000e+00  -9.923407e+00 8.605101e-01 0.000000e+00  -1.062113e+01 0.000000e+00 0.000000e+00  4.222967e+00 0.000000e+00 0.000000e+00  4.472063e+00 3.128371e-01 0.000000e+00  4.688196e+00 6.424298e-01 0.000000e+00  4.866960e+00 9.862486e-01 0.000000e+00  5.003991e+00 1.341448e+00 0.000000e+00  5.095096e+00 1.704876e+00 0.000000e+00  5.136317e+00 2.073084e+00 0.000000e+00  5.123985e+00 2.442353e+00 0.000000e+00  5.054781e+00 2.808708e+00 0.000000e+00  4.925795e+00 3.167952e+00 0.000000e+00  4.734584e+00 3.515697e+00 0.000000e+00  4.479225e+00 3.847393e+00 0.000000e+00  4.158377e+00 4.158377e+00 0.000000e+00  3.771327e+00 4.443908e+00 0.000000e+00  3.318042e+00 4.699221e+00 0.000000e+00  2.799210e+00 4.919573e+00 0.000000e+00  2.216282e+00 5.100296e+00 0.000000e+00  1.571504e+00 5.236858e+00 0.000000e+00  8.679430e-01 5.324916e+00 0.000000e+00  1.095075e-01 5.360378e+00 0.000000e+00  -6.990412e-01 5.339464e+00 0.000000e+00  -1.552086e+00 5.258766e+00 0.000000e+00  -2.443162e+00 5.115312e+00 0.000000e+00  -3.364970e+00 4.906625e+00 0.000000e+00  -4.309403e+00 4.630781e+00 0.000000e+00  -5.267585e+00 4.286468e+00 0.000000e+00  -6.229917e+00 3.873038e+00 0.000000e+00  -7.186134e+00 3.390558e+00 0.000000e+00  -8.125377e+00 2.839855e+00 0.000000e+00  -9.036273e+00 2.222556e+00 0.000000e+00  -9.907025e+00 1.541121e+00 0.000000e+00  -1.072551e+01 7.988709e-01 0.000000e+00  -1.147964e+01 0.000000e+00 0.000000e+00  4.512934e+00 0.000000e+00 0.000000e+00  4.779134e+00 2.837194e-01 0.000000e+00  5.010107e+00 5.826345e-01 0.000000e+00  5.201146e+00 8.944516e-01 0.000000e+00  5.347586e+00 1.216590e+00 0.000000e+00  5.444946e+00 1.546191e+00 0.000000e+00  5.488998e+00 1.880128e+00 0.000000e+00  5.475819e+00 2.215026e+00 0.000000e+00  5.401863e+00 2.547281e+00 0.000000e+00  5.264021e+00 2.873089e+00 0.000000e+00  5.059680e+00 3.188466e+00 0.000000e+00  4.786787e+00 3.489289e+00 0.000000e+00  4.443908e+00 3.771327e+00 0.000000e+00  4.030282e+00 4.030282e+00 0.000000e+00  3.545872e+00 4.261831e+00 0.000000e+00  2.991415e+00 4.461673e+00 0.000000e+00  2.368461e+00 4.625575e+00 0.000000e+00  1.679410e+00 4.749426e+00 0.000000e+00  9.275393e-01 4.829288e+00 0.000000e+00  1.170264e-01 4.861449e+00 0.000000e+00  -7.470406e-01 4.842481e+00 0.000000e+00  -1.658660e+00 4.769295e+00 0.000000e+00  -2.610921e+00 4.639193e+00 0.000000e+00  -3.596023e+00 4.449930e+00 0.000000e+00  -4.605305e+00 4.199761e+00 0.000000e+00  -5.629280e+00 3.887496e+00 0.000000e+00  -6.657690e+00 3.512546e+00 0.000000e+00  -7.679565e+00 3.074974e+00 0.000000e+00  -8.683300e+00 2.575529e+00 0.000000e+00  -9.656742e+00 2.015686e+00 0.000000e+00  -1.058728e+01 1.397677e+00 0.000000e+00  -1.146197e+01 7.245137e-01 0.000000e+00  -1.226787e+01 0.000000e+00 0.000000e+00  4.772213e+00 0.000000e+00 0.000000e+00  5.053707e+00 2.496187e-01 0.000000e+00  5.297949e+00 5.126065e-01 0.000000e+00  5.499964e+00 7.869455e-01 0.000000e+00  5.654817e+00 1.070366e+00 0.000000e+00  5.757772e+00 1.360351e+00 0.000000e+00  5.804354e+00 1.654151e+00 0.000000e+00  5.790418e+00 1.948796e+00 0.000000e+00  5.712213e+00 2.241117e+00 0.000000e+00  5.566452e+00 2.527765e+00 0.000000e+00  5.350370e+00 2.805236e+00 0.000000e+00  5.061799e+00 3.069903e+00 0.000000e+00  4.699221e+00 3.318042e+00 0.000000e+00  4.261831e+00 3.545872e+00 0.000000e+00  3.749591e+00 3.749591e+00 0.000000e+00  3.163279e+00 3.925413e+00 0.000000e+00  2.504535e+00 4.069615e+00 0.000000e+00  1.775896e+00 4.178581e+00 0.000000e+00  9.808283e-01 4.248844e+00 0.000000e+00  1.237495e-01 4.277139e+00 0.000000e+00  -7.899602e-01 4.260451e+00 0.000000e+00  -1.753954e+00 4.196061e+00 0.000000e+00  -2.760925e+00 4.081596e+00 0.000000e+00  -3.802624e+00 3.915081e+00 0.000000e+00  -4.869892e+00 3.694981e+00 0.000000e+00  -5.952696e+00 3.420247e+00 0.000000e+00  -7.040190e+00 3.090364e+00 0.000000e+00  -8.120774e+00 2.705385e+00 0.000000e+00  -9.182177e+00 2.265969e+00 0.000000e+00  -1.021154e+01 1.773415e+00 0.000000e+00  -1.119555e+01 1.229686e+00 0.000000e+00