<?xml version="1.0"?>
<VTKFile type="UnstructuredGrid"  version="0.1"  >
<UnstructuredGrid>
<Piece  NumberOfPoints="1089" NumberOfCells="2048">
<Points>
<DataArray  type="Float32"  NumberOfComponents="3"  format="ascii">0 0 0  0.03125 0 0  0.0625 0 0  0.09375 0 0  0.125 0 0  0.15625 0 0  0.1875 0 0  0.21875 0 0  0.25 0 0  0.28125 0 0  0.3125 0 0  0.34375 0 0  0.375 0 0  0.40625 0 0  0.4375 0 0  0.46875 0 0  0.5 0 0  0.53125 0 0  0.5625 0 0  0.59375 0 0  0.625 0 0  0.65625 0 0  0.6875 0 0  0.71875 0 0  0.75 0 0  0.78125 0 0  0.8125 0 0  0.84375 0 0  0.875 0 0  0.90625 0 0  0.9375 0 0  0.96875 0 0  1 0 0  0 0.03125 0  0.03125 0.03125 0  0.0625 0.03125 0  0.09375 0.03125 0  0.125 0.03125 0  0.15625 0.03125 0  0.1875 0.03125 0  0.21875 0.03125 0  0.25 0.03125 0  0.28125 0.03125 0  0.3125 0.03125 0  0.34375 0.03125 0  0.375 0.03125 0  0.40625 0.03125 0  0.4375 0.03125 0  0.46875 0.03125 0  0.5 0.03125 0  0.53125 0.03125 0  0.5625 0.03125 0  0.59375 0.03125 0  0.625 0.03125 0  0.65625 0.03125 0  0.6875 0.03125 0  0.71875 0.03125 0  0.75 0.03125 0  0.78125 0.03125 0  0.8125 0.03125 0  0.84375 0.03125 0  0.875 0.03125 0  0.90625 0.03125 0  0.9375 0.03125 0  0.96875 0.03125 0  1 0.03125 0  0 0.0625 0  0.03125 0.0625 0  0.0625 0.0625 0  0.09375 0.0625 0  0.125 0.0625 0  0.15625 0.0625 0  0.1875 0.0625 0  0.21875 0.0625 0  0.25 0.0625 0  0.28125 0.0625 0  0.3125 0.0625 0  0.34375 0.0625 0  0.375 0.0625 0  0.40625 0.0625 0  0.4375 0.0625 0  0.46875 0.0625 0  0.5 0.0625 0  0.53125 0.0625 0  0.5625 0.0625 0  0.59375 0.0625 0  0.625 0.0625 0  0.65625 0.0625 0  0.6875 0.0625 0  0.71875 0.0625 0  0.75 0.0625 0  0.78125 0.0625 0  0.8125 0.0625 0  0.84375 0.0625 0  0.875 0.0625 0  0.90625 0.0625 0  0.9375 0.0625 0  0.96875 0.0625 0  1 0.0625 0  0 0.09375 0  0.03125 0.09375 0  0.0625 0.09375 0  0.09375 0.09375 0  0.125 0.09375 0  0.15625 0.09375 0  0.1875 0.09375 0  0.21875 0.09375 0  0.25 0.09375 0  0.28125 0.09375 0  0.3125 0.09375 0  0.34375 0.09375 0  0.375 0.09375 0  0.40625 0.09375 0  0.4375 0.09375 0  0.46875 0.09375 0  0.5 0.09375 0  0.53125 0.09375 0  0.5625 0.09375 0  0.59375 0.09375 0  0.625 0.09375 0  0.65625 0.09375 0  0.6875 0.09375 0  0.71875 0.09375 0  0.75 0.09375 0  0.78125 0.09375 0  0.8125 0.09375 0  0.84375 0.09375 0  0.875 0.09375 0  0.90625 0.09375 0  0.9375 0.09375 0  0.96875 0.09375 0  1 0.09375 0  0 0.125 0  0.03125 0.125 0  0.0625 0.125 0  0.09375 0.125 0  0.125 0.125 0  0.15625 0.125 0  0.1875 0.125 0  0.21875 0.125 0  0.25 0.125 0  0.28125 0.125 0  0.3125 0.125 0  0.34375 0.125 0  0.375 0.125 0  0.40625 0.125 0  0.4375 0.125 0  0.46875 0.125 0  0.5 0.125 0  0.53125 0.125 0  0.5625 0.125 0  0.59375 0.125 0  0.625 0.125 0  0.65625 0.125 0  0.6875 0.125 0  0.71875 0.125 0  0.75 0.125 0  0.78125 0.125 0  0.8125 0.125 0  0.84375 0.125 0  0.875 0.125 0  0.90625 0.125 0  0.9375 0.125 0  0.96875 0.125 0  1 0.125 0  0 0.15625 0  0.03125 0.15625 0  0.0625 0.15625 0  0.09375 0.15625 0  0.125 0.15625 0  0.15625 0.15625 0  0.1875 0.15625 0  0.21875 0.15625 0  0.25 0.15625 0  0.28125 0.15625 0  0.3125 0.15625 0  0.34375 0.15625 0  0.375 0.15625 0  0.40625 0.15625 0  0.4375 0.15625 0  0.46875 0.15625 0  0.5 0.15625 0  0.53125 0.15625 0  0.5625 0.15625 0  0.59375 0.15625 0  0.625 0.15625 0  0.65625 0.15625 0  0.6875 0.15625 0  0.71875 0.15625 0  0.75 0.15625 0  0.78125 0.15625 0  0.8125 0.15625 0  0.84375 0.15625 0  0.875 0.15625 0  0.90625 0.15625 0  0.9375 0.15625 0  0.96875 0.15625 0  1 0.15625 0  0 0.1875 0  0.03125 0.1875 0  0.0625 0.1875 0  0.09375 0.1875 0  0.125 0.1875 0  0.15625 0.1875 0  0.1875 0.1875 0  0.21875 0.1875 0  0.25 0.1875 0  0.28125 0.1875 0  0.3125 0.1875 0  0.34375 0.1875 0  0.375 0.1875 0  0.40625 0.1875 0  0.4375 0.1875 0  0.46875 0.1875 0  0.5 0.1875 0  0.53125 0.1875 0  0.5625 0.1875 0  0.59375 0.1875 0  0.625 0.1875 0  0.65625 0.1875 0  0.6875 0.1875 0  0.71875 0.1875 0  0.75 0.1875 0  0.78125 0.1875 0  0.8125 0.1875 0  0.84375 0.1875 0  0.875 0.1875 0  0.90625 0.1875 0  0.9375 0.1875 0  0.96875 0.1875 0  1 0.1875 0  0 0.21875 0  0.03125 0.21875 0  0.0625 0.21875 0  0.09375 0.21875 0  0.125 0.21875 0  0.15625 0.21875 0  0.1875 0.21875 0  0.21875 0.21875 0  0.25 0.21875 0  0.28125 0.21875 0  0.3125 0.21875 0  0.34375 0.21875 0  0.375 0.21875 0  0.40625 0.21875 0  0.4375 0.21875 0  0.46875 0.21875 0  0.5 0.21875 0  0.53125 0.21875 0  0.5625 0.21875 0  0.59375 0.21875 0  0.625 0.21875 0  0.65625 0.21875 0  0.6875 0.21875 0  0.71875 0.21875 0  0.75 0.21875 0  0.78125 0.21875 0  0.8125 0.21875 0  0.84375 0.21875 0  0.875 0.21875 0  0.90625 0.21875 0  0.9375 0.21875 0  0.96875 0.21875 0  1 0.21875 0  0 0.25 0  0.03125 0.25 0  0.0625 0.25 0  0.09375 0.25 0  0.125 0.25 0  0.15625 0.25 0  0.1875 0.25 0  0.21875 0.25 0  0.25 0.25 0  0.28125 0.25 0  0.3125 0.25 0  0.34375 0.25 0  0.375 0.25 0  0.40625 0.25 0  0.4375 0.25 0  0.46875 0.25 0  0.5 0.25 0  0.53125 0.25 0  0.5625 0.25 0  0.59375 0.25 0  0.625 0.25 0  0.65625 0.25 0  0.6875 0.25 0  0.71875 0.25 0  0.75 0.25 0  0.78125 0.25 0  0.8125 0.25 0  0.84375 0.25 0  0.875 0.25 0  0.90625 0.25 0  0.9375 0.25 0  0.96875 0.25 0  1 0.25 0  0 0.28125 0  0.03125 0.28125 0  0.0625 0.28125 0  0.09375 0.28125 0  0.125 0.28125 0  0.15625 0.28125 0  0.1875 0.28125 0  0.21875 0.28125 0  0.25 0.28125 0  0.28125 0.28125 0  0.3125 0.28125 0  0.34375 0.28125 0  0.375 0.28125 0  0.40625 0.28125 0  0.4375 0.28125 0  0.46875 0.28125 0  0.5 0.28125 0  0.53125 0.28125 0  0.5625 0.28125 0  0.59375 0.28125 0  0.625 0.28125 0  0.65625 0.28125 0  0.6875 0.28125 0  0.71875 0.28125 0  0.75 0.28125 0  0.78125 0.28125 0  0.8125 0.28125 0  0.84375 0.28125 0  0.875 0.28125 0  0.90625 0.28125 0  0.9375 0.28125 0  0.96875 0.28125 0  1 0.28125 0  0 0.3125 0  0.03125 0.3125 0  0.0625 0.3125 0  0.09375 0.3125 0  0.125 0.3125 0  0.15625 0.3125 0  0.1875 0.3125 0  0.21875 0.3125 0  0.25 0.3125 0  0.28125 0.3125 0  0.3125 0.3125 0  0.34375 0.3125 0  0.375 0.3125 0  0.40625 0.3125 0  0.4375 0.3125 0  0.46875 0.3125 0  0.5 0.3125 0  0.53125 0.3125 0  0.5625 0.3125 0  0.59375 0.3125 0  0.625 0.3125 0  0.65625 0.3125 0  0.6875 0.3125 0  0.71875 0.3125 0  0.75 0.3125 0  0.78125 0.3125 0  0.8125 0.3125 0  0.84375 0.3125 0  0.875 0.3125 0  0.90625 0.3125 0  0.9375 0.3125 0  0.96875 0.3125 0  1 0.3125 0  0 0.34375 0  0.03125 0.34375 0  0.0625 0.34375 0  0.09375 0.34375 0  0.125 0.34375 0  0.15625 0.34375 0  0.1875 0.34375 0  0.21875 0.34375 0  0.25 0.34375 0  0.28125 0.34375 0  0.3125 0.34375 0  0.34375 0.34375 0  0.375 0.34375 0  0.40625 0.34375 0  0.4375 0.34375 0  0.46875 0.34375 0  0.5 0.34375 0  0.53125 0.34375 0  0.5625 0.34375 0  0.59375 0.34375 0  0.625 0.34375 0  0.65625 0.34375 0  0.6875 0.34375 0  0.71875 0.34375 0  0.75 0.34375 0  0.78125 0.34375 0  0.8125 0.34375 0  0.84375 0.34375 0  0.875 0.34375 0  0.90625 0.34375 0  0.9375 0.34375 0  0.96875 0.34375 0  1 0.34375 0  0 0.375 0  0.03125 0.375 0  0.0625 0.375 0  0.09375 0.375 0  0.125 0.375 0  0.15625 0.375 0  0.1875 0.375 0  0.21875 0.375 0  0.25 0.375 0  0.28125 0.375 0  0.3125 0.375 0  0.34375 0.375 0  0.375 0.375 0  0.40625 0.375 0  0.4375 0.375 0  0.46875 0.375 0  0.5 0.375 0  0.53125 0.375 0  0.5625 0.375 0  0.59375 0.375 0  0.625 0.375 0  0.65625 0.375 0  0.6875 0.375 0  0.71875 0.375 0  0.75 0.375 0  0.78125 0.375 0  0.8125 0.375 0  0.84375 0.375 0  0.875 0.375 0  0.90625 0.375 0  0.9375 0.375 0  0.96875 0.375 0  1 0.375 0  0 0.40625 0  0.03125 0.40625 0  0.0625 0.40625 0  0.09375 0.40625 0  0.125 0.40625 0  0.15625 0.40625 0  0.1875 0.40625 0  0.21875 0.40625 0  0.25 0.40625 0  0.28125 0.40625 0  0.3125 0.40625 0  0.34375 0.40625 0  0.375 0.40625 0  0.40625 0.40625 0  0.4375 0.40625 0  0.46875 0.40625 0  0.5 0.40625 0  0.53125 0.40625 0  0.5625 0.40625 0  0.59375 0.40625 0  0.625 0.40625 0  0.65625 0.40625 0  0.6875 0.40625 0  0.71875 0.40625 0  0.75 0.40625 0  0.78125 0.40625 0  0.8125 0.40625 0  0.84375 0.40625 0  0.875 0.40625 0  0.90625 0.40625 0  0.9375 0.40625 0  0.96875 0.40625 0  1 0.40625 0  0 0.4375 0  0.03125 0.4375 0  0.0625 0.4375 0  0.09375 0.4375 0  0.125 0.4375 0  0.15625 0.4375 0  0.1875 0.4375 0  0.21875 0.4375 0  0.25 0.4375 0  0.28125 0.4375 0  0.3125 0.4375 0  0.34375 0.4375 0  0.375 0.4375 0  0.40625 0.4375 0  0.4375 0.4375 0  0.46875 0.4375 0  0.5 0.4375 0  0.53125 0.4375 0  0.5625 0.4375 0  0.59375 0.4375 0  0.625 0.4375 0  0.65625 0.4375 0  0.6875 0.4375 0  0.71875 0.4375 0  0.75 0.4375 0  0.78125 0.4375 0  0.8125 0.4375 0  0.84375 0.4375 0  0.875 0.4375 0  0.90625 0.4375 0  0.9375 0.4375 0  0.96875 0.4375 0  1 0.4375 0  0 0.46875 0  0.03125 0.46875 0  0.0625 0.46875 0  0.09375 0.46875 0  0.125 0.46875 0  0.15625 0.46875 0  0.1875 0.46875 0  0.21875 0.46875 0  0.25 0.46875 0  0.28125 0.46875 0  0.3125 0.46875 0  0.34375 0.46875 0  0.375 0.46875 0  0.40625 0.46875 0  0.4375 0.46875 0  0.46875 0.46875 0  0.5 0.46875 0  0.53125 0.46875 0  0.5625 0.46875 0  0.59375 0.46875 0  0.625 0.46875 0  0.65625 0.46875 0  0.6875 0.46875 0  0.71875 0.46875 0  0.75 0.46875 0  0.78125 0.46875 0  0.8125 0.46875 0  0.84375 0.46875 0  0.875 0.46875 0  0.90625 0.46875 0  0.9375 0.46875 0  0.96875 0.46875 0  1 0.46875 0  0 0.5 0  0.03125 0.5 0  0.0625 0.5 0  0.09375 0.5 0  0.125 0.5 0  0.15625 0.5 0  0.1875 0.5 0  0.21875 0.5 0  0.25 0.5 0  0.28125 0.5 0  0.3125 0.5 0  0.34375 0.5 0  0.375 0.5 0  0.40625 0.5 0  0.4375 0.5 0  0.46875 0.5 0  0.5 0.5 0  0.53125 0.5 0  0.5625 0.5 0  0.59375 0.5 0  0.625 0.5 0  0.65625 0.5 0  0.6875 0.5 0  0.71875 0.5 0  0.75 0.5 0  0.78125 0.5 0  0.8125 0.5 0  0.84375 0.5 0  0.875 0.5 0  0.90625 0.5 0  0.9375 0.5 0  0.96875 0.5 0  1 0.5 0  0 0.53125 0  0.03125 0.53125 0  0.0625 0.53125 0  0.09375 0.53125 0  0.125 0.53125 0  0.15625 0.53125 0  0.1875 0.53125 0  0.21875 0.53125 0  0.25 0.53125 0  0.28125 0.53125 0  0.3125 0.53125 0  0.34375 0.53125 0  0.375 0.53125 0  0.40625 0.53125 0  0.4375 0.53125 0  0.46875 0.53125 0  0.5 0.53125 0  0.53125 0.53125 0  0.5625 0.53125 0  0.59375 0.53125 0  0.625 0.53125 0  0.65625 0.53125 0  0.6875 0.53125 0  0.71875 0.53125 0  0.75 0.53125 0  0.78125 0.531
[...]
<PointData  Vectors="u"> 
<DataArray  type="Float32"  Name="u"  NumberOfComponents="3" format="ascii">0.000000e+00 0.000000e+00 0.000000e+00  0.000000e+00 3.194853e-01 0.000000e+00  0.000000e+00 6.556979e-01 0.000000e+00  0.000000e+00 1.006140e+00 0.000000e+00  0.000000e+00 1.367947e+00 0.000000e+00  0.000000e+00 1.737926e+00 0.000000e+00  0.000000e+00 2.112582e+00 0.000000e+00  0.000000e+00 2.488142e+00 0.000000e+00  0.000000e+00 2.860573e+00 0.000000e+00  0.000000e+00 3.225618e+00 0.000000e+00  0.000000e+00 3.578821e+00 0.000000e+00  0.000000e+00 3.915570e+00 0.000000e+00  0.000000e+00 4.231134e+00 0.000000e+00  0.000000e+00 4.520709e+00 0.000000e+00  0.000000e+00 4.779463e+00 0.000000e+00  0.000000e+00 5.002591e+00 0.000000e+00  0.000000e+00 5.185367e+00 0.000000e+00  0.000000e+00 5.323203e+00 0.000000e+00  0.000000e+00 5.411707e+00 0.000000e+00  0.000000e+00 5.446742e+00 0.000000e+00  0.000000e+00 5.424493e+00 0.000000e+00  0.000000e+00 5.341523e+00 0.000000e+00  0.000000e+00 5.194843e+00 0.000000e+00  0.000000e+00 4.981965e+00 0.000000e+00  0.000000e+00 4.700972e+00 0.000000e+00  0.000000e+00 4.350564e+00 0.000000e+00  0.000000e+00 3.930126e+00 0.000000e+00  0.000000e+00 3.439768e+00 0.000000e+00  0.000000e+00 2.880380e+00 0.000000e+00  0.000000e+00 2.253671e+00 0.000000e+00  0.000000e+00 1.562213e+00 0.000000e+00  0.000000e+00 8.094892e-01 0.000000e+00  0.000000e+00 0.000000e+00 0.000000e+00  3.194853e-01 0.000000e+00 0.000000e+00  3.379347e-01 3.379347e-01 0.000000e+00  3.539610e-01 6.936806e-01 0.000000e+00  3.671992e-01 1.064526e+00 0.000000e+00  3.773108e-01 1.447421e+00 0.000000e+00  3.839764e-01 1.838983e+00 0.000000e+00  3.868968e-01 2.235510e+00 0.000000e+00  3.857957e-01 2.633007e+00 0.000000e+00  3.804239e-01 3.027206e+00 0.000000e+00  3.705632e-01 3.413600e+00 0.000000e+00  3.560307e-01 3.787472e+00 0.000000e+00  3.366832e-01 4.143941e+00 0.000000e+00  3.124213e-01 4.477997e+00 0.000000e+00  2.831931e-01 4.784555e+00 0.000000e+00  2.489976e-01 5.058500e+00 0.000000e+00  2.098887e-01 5.294745e+00 0.000000e+00  1.659774e-01 5.488288e+00 0.000000e+00  1.174347e-01 5.634269e+00 0.000000e+00  6.449344e-02 5.728038e+00 0.000000e+00  7.449784e-03 5.765217e+00 0.000000e+00  -5.333591e-02 5.741763e+00 0.000000e+00  -1.174389e-01 5.654039e+00 0.000000e+00  -1.843706e-01 5.498877e+00 0.000000e+00  -2.535796e-01 5.273642e+00 0.000000e+00  -3.244539e-01 4.976301e+00 0.000000e+00  -3.963231e-01 4.605478e+00 0.000000e+00  -4.684623e-01 4.160516e+00 0.000000e+00  -5.400963e-01 3.641528e+00 0.000000e+00  -6.104034e-01 3.049452e+00 0.000000e+00  -6.785213e-01 2.386088e+00 0.000000e+00  -7.435491e-01 1.654143e+00 0.000000e+00  -8.045463e-01 8.572559e-01 0.000000e+00  -8.605095e-01 0.000000e+00 0.000000e+00  6.556979e-01 0.000000e+00 0.000000e+00  6.936806e-01 3.539610e-01 0.000000e+00  7.266291e-01 7.266291e-01 0.000000e+00  7.538349e-01 1.115151e+00 0.000000e+00  7.746148e-01 1.516323e+00 0.000000e+00  7.883171e-01 1.926594e+00 0.000000e+00  7.943286e-01 2.342084e+00 0.000000e+00  7.920828e-01 2.758604e+00 0.000000e+00  7.810678e-01 3.171682e+00 0.000000e+00  7.608358e-01 3.576592e+00 0.000000e+00  7.310114e-01 3.968394e+00 0.000000e+00  6.913005e-01 4.341970e+00 0.000000e+00  6.414988e-01 4.692070e+00 0.000000e+00  5.814993e-01 5.013365e+00 0.000000e+00  5.113005e-01 5.300493e+00 0.000000e+00  4.310122e-01 5.548124e+00 0.000000e+00  3.408626e-01 5.751013e+00 0.000000e+00  2.412024e-01 5.904069e+00 0.000000e+00  1.325096e-01 6.002415e+00 0.000000e+00  1.539194e-02 6.041462e+00 0.000000e+00  -1.094108e-01 6.016973e+00 0.000000e+00  -2.410269e-01 5.925134e+00 0.000000e+00  -3.784532e-01 5.762622e+00 0.000000e+00  -5.205579e-01 5.526675e+00 0.000000e+00  -6.660847e-01 5.215159e+00 0.000000e+00  -8.136576e-01 4.826628e+00 0.000000e+00  -9.617890e-01 4.360392e+00 0.000000e+00  -1.108887e+00 3.816563e+00 0.000000e+00  -1.253268e+00 3.196119e+00 0.000000e+00  -1.393164e+00 2.500937e+00 0.000000e+00  -1.526737e+00 1.733837e+00 0.000000e+00  -1.652088e+00 8.986049e-01 0.000000e+00  -1.767267e+00 0.000000e+00 0.000000e+00  1.006140e+00 0.000000e+00 0.000000e+00  1.064526e+00 3.671992e-01 0.000000e+00  1.115151e+00 7.538349e-01 0.000000e+00  1.156946e+00 1.156946e+00 0.000000e+00  1.188870e+00 1.573204e+00 0.000000e+00  1.209927e+00 1.998922e+00 0.000000e+00  1.219177e+00 2.430072e+00 0.000000e+00  1.215752e+00 2.862304e+00 0.000000e+00  1.198866e+00 3.290976e+00 0.000000e+00  1.167831e+00 3.711185e+00 0.000000e+00  1.122072e+00 4.117801e+00 0.000000e+00  1.061138e+00 4.505514e+00 0.000000e+00  9.847131e-01 4.868876e+00 0.000000e+00  8.926347e-01 5.202353e+00 0.000000e+00  7.848995e-01 5.500382e+00 0.000000e+00  6.616762e-01 5.757429e+00 0.000000e+00  5.233145e-01 5.968051e+00 0.000000e+00  3.703526e-01 6.126962e+00 0.000000e+00  2.035238e-01 6.229102e+00 0.000000e+00  2.376093e-02 6.269704e+00 0.000000e+00  -1.678011e-01 6.244371e+00 0.000000e+00  -3.698244e-01 6.149142e+00 0.000000e+00  -5.807697e-01 5.980568e+00 0.000000e+00  -7.989001e-01 5.735778e+00 0.000000e+00  -1.022288e+00 5.412556e+00 0.000000e+00  -1.248821e+00 5.009398e+00 0.000000e+00  -1.476217e+00 4.525583e+00 0.000000e+00  -1.702036e+00 3.961226e+00 0.000000e+00  -1.923693e+00 3.317333e+00 0.000000e+00  -2.138481e+00 2.595845e+00 0.000000e+00  -2.343589e+00 1.799679e+00 0.000000e+00  -2.536125e+00 9.327521e-01 0.000000e+00  -2.713145e+00 0.000000e+00 0.000000e+00  1.367947e+00 0.000000e+00 0.000000e+00  1.447421e+00 3.773108e-01 0.000000e+00  1.516323e+00 7.746148e-01 0.000000e+00  1.573204e+00 1.188870e+00 0.000000e+00  1.616655e+00 1.616655e+00 0.000000e+00  1.645323e+00 2.054178e+00 0.000000e+00  1.657933e+00 2.497298e+00 0.000000e+00  1.653302e+00 2.941545e+00 0.000000e+00  1.630365e+00 3.382144e+00 0.000000e+00  1.588186e+00 3.814057e+00 0.000000e+00  1.525982e+00 4.232009e+00 0.000000e+00  1.443138e+00 4.630543e+00 0.000000e+00  1.339227e+00 5.004056e+00 0.000000e+00  1.214027e+00 5.346862e+00 0.000000e+00  1.067532e+00 5.653241e+00 0.000000e+00  8.999723e-01 5.917504e+00 0.000000e+00  7.118226e-01 6.134056e+00 0.000000e+00  5.038147e-01 6.297461e+00 0.000000e+00  2.769454e-01 6.402517e+00 0.000000e+00  3.248293e-02 6.444325e+00 0.000000e+00  -2.280296e-01 6.418361e+00 0.000000e+00  -5.027732e-01 6.320553e+00 0.000000e+00  -7.896550e-01 6.147353e+00 0.000000e+00  -1.086314e+00 5.895810e+00 0.000000e+00  -1.390127e+00 5.563641e+00 0.000000e+00  -1.698226e+00 5.149298e+00 0.000000e+00  -2.007506e+00 4.652037e+00 0.000000e+00  -2.314649e+00 4.071971e+00 0.000000e+00  -2.616146e+00 3.410129e+00 0.000000e+00  -2.908318e+00 2.668502e+00 0.000000e+00  -3.187351e+00 1.850082e+00 0.000000e+00  -3.449325e+00 9.588897e-01 0.000000e+00  -3.690257e+00 0.000000e+00 0.000000e+00  1.737926e+00 0.000000e+00 0.000000e+00  1.838983e+00 3.839764e-01 0.000000e+00  1.926594e+00 7.883171e-01 0.000000e+00  1.998922e+00 1.209927e+00 0.000000e+00  2.054178e+00 1.645323e+00 0.000000e+00  2.090646e+00 2.090646e+00 0.000000e+00  2.106705e+00 2.541679e+00 0.000000e+00  2.100855e+00 2.993871e+00 0.000000e+00  2.071741e+00 3.442363e+00 0.000000e+00  2.018173e+00 3.882023e+00 0.000000e+00  1.939158e+00 4.307484e+00 0.000000e+00  1.833913e+00 4.713187e+00 0.000000e+00  1.701897e+00 5.093431e+00 0.000000e+00  1.542824e+00 5.442425e+00 0.000000e+00  1.356690e+00 5.754347e+00 0.000000e+00  1.143785e+00 6.023404e+00 0.000000e+00  9.047125e-01 6.243899e+00 0.000000e+00  6.404018e-01 6.410300e+00 0.000000e+00  3.521194e-01 6.517308e+00 0.000000e+00  4.147620e-02 6.559935e+00 0.000000e+00  -2.895672e-01 6.533574e+00 0.000000e+00  -6.386999e-01 6.434079e+00 0.000000e+00  -1.003263e+00 6.257836e+00 0.000000e+00  -1.380256e+00 6.001838e+00 0.000000e+00  -1.766349e+00 5.663758e+00 0.000000e+00  -2.157895e+00 5.242020e+00 0.000000e+00  -2.550951e+00 4.735861e+00 0.000000e+00  -2.941303e+00 4.145394e+00 0.000000e+00  -3.324493e+00 3.471661e+00 0.000000e+00  -3.695851e+00 2.716687e+00 0.000000e+00  -4.050535e+00 1.883511e+00 0.000000e+00  -4.383573e+00 9.762272e-01 0.000000e+00  -4.689909e+00 0.000000e+00 0.000000e+00  2.112582e+00 0.000000e+00 0.000000e+00  2.235510e+00 3.868968e-01 0.000000e+00  2.342084e+00 7.943286e-01 0.000000e+00  2.430072e+00 1.219177e+00 0.000000e+00  2.497298e+00 1.657933e+00 0.000000e+00  2.541679e+00 2.106705e+00 0.000000e+00  2.561245e+00 2.561245e+00 0.000000e+00  2.554172e+00 3.016964e+00 0.000000e+00  2.518811e+00 3.468966e+00 0.000000e+00  2.453720e+00 3.912077e+00 0.000000e+00  2.357686e+00 4.340887e+00 0.000000e+00  2.229761e+00 4.749794e+00 0.000000e+00  2.069285e+00 5.133052e+00 0.000000e+00  1.875911e+00 5.484822e+00 0.000000e+00  1.649633e+00 5.799237e+00 0.000000e+00  1.390803e+00 6.070457e+00 0.000000e+00  1.100154e+00 6.292739e+00 0.000000e+00  7.788169e-01 6.460506e+00 0.000000e+00  4.283299e-01 6.568418e+00 0.000000e+00  5.065141e-02 6.611444e+00 0.000000e+00  -3.518355e-01 6.584941e+00 0.000000e+00  -7.763218e-01 6.484728e+00 0.000000e+00  -1.219575e+00 6.307159e+00 0.000000e+00  -1.677949e+00 6.049204e+00 0.000000e+00  -2.147394e+00 5.708514e+00 0.000000e+00  -2.623478e+00 5.283498e+00 0.000000e+00  -3.101409e+00 4.773383e+00 0.000000e+00  -3.576065e+00 4.178282e+00 0.000000e+00  -4.042026e+00 3.499242e+00 0.000000e+00  -4.493618e+00 2.738298e+00 0.000000e+00  -4.924958e+00 1.898514e+00 0.000000e+00  -5.330004e+00 9.840126e-01 0.000000e+00  -5.702614e+00 0.000000e+00 0.000000e+00  2.488142e+00 0.000000e+00 0.000000e+00  2.633007e+00 3.857957e-01 0.000000e+00  2.758604e+00 7.920828e-01 0.000000e+00  2.862304e+00 1.215752e+00 0.000000e+00  2.941545e+00 1.653302e+00 0.000000e+00  2.993871e+00 2.100855e+00 0.000000e+00  3.016964e+00 2.554172e+00 0.000000e+00  3.008676e+00 3.008676e+00 0.000000e+00  2.967064e+00 3.459482e+00 0.000000e+00  2.890428e+00 3.901432e+00 0.000000e+00  2.777341e+00 4.329128e+00 0.000000e+00  2.626685e+00 4.736982e+00 0.000000e+00  2.437681e+00 5.119263e+00 0.000000e+00  2.209922e+00 5.470147e+00 0.000000e+00  1.943399e+00 5.783780e+00 0.000000e+00  1.638528e+00 6.054337e+00 0.000000e+00  1.296171e+00 6.276091e+00 0.000000e+00  9.176591e-01 6.443476e+00 0.000000e+00  5.048040e-01 6.551165e+00 0.000000e+00  5.991216e-02 6.594139e+00 0.000000e+00  -4.142098e-01 6.567767e+00 0.000000e+00  -9.142534e-01 6.467874e+00 0.000000e+00  -1.436412e+00 6.290825e+00 0.000000e+00  -1.976390e+00 6.033594e+00 0.000000e+00  -2.529419e+00 5.693837e+00 0.000000e+00  -3.090279e+00 5.269963e+00 0.000000e+00  -3.653326e+00 4.761201e+00 0.000000e+00  -4.212526e+00 4.167658e+00 0.000000e+00  -4.761499e+00 3.490378e+00 0.000000e+00  -5.293561e+00 2.731388e+00 0.000000e+00  -5.801784e+00 1.893741e+00 0.000000e+00  -6.279054e+00 9.815471e-01 0.000000e+00  -6.718134e+00 0.000000e+00 0.000000e+00  2.860573e+00 0.000000e+00 0.000000e+00  3.027206e+00 3.804239e-01 0.000000e+00  3.171682e+00 7.810678e-01 0.000000e+00  3.290976e+00 1.198866e+00 0.000000e+00  3.382144e+00 1.630365e+00 0.000000e+00  3.442363e+00 2.071741e+00 0.000000e+00  3.468966e+00 2.518811e+00 0.000000e+00  3.459482e+00 2.967064e+00 0.000000e+00  3.411680e+00 3.411680e+00 0.000000e+00  3.323602e+00 3.847570e+00 0.000000e+00  3.193610e+00 4.269412e+00 0.000000e+00  3.020415e+00 4.671693e+00 0.000000e+00  2.803124e+00 5.048758e+00 0.000000e+00  2.541266e+00 5.394866e+00 0.000000e+00  2.234831e+00 5.704240e+00 0.000000e+00  1.884296e+00 5.971135e+00 0.000000e+00  1.490654e+00 6.189899e+00 0.000000e+00  1.055433e+00 6.355045e+00 0.000000e+00  5.807164e-01 6.461314e+00 0.000000e+00  6.915551e-02 6.503758e+00 0.000000e+00  -4.760231e-01 6.477805e+00 0.000000e+00  -1.051016e+00 6.379338e+00 0.000000e+00  -1.651446e+00 6.204768e+00 0.000000e+00  -2.272376e+00 5.951108e+00 0.000000e+00  -2.908322e+00 5.616046e+00 0.000000e+00  -3.553283e+00 5.198010e+00 0.000000e+00  -4.200770e+00 4.696236e+00 0.000000e+00  -4.843847e+00 4.110829e+00 0.000000e+00  -5.475177e+00 3.442815e+00 0.000000e+00  -6.087078e+00 2.694192e+00 0.000000e+00  -6.671584e+00 1.867968e+00 0.000000e+00  -7.220513e+00 9.681972e-01 0.000000e+00  -7.725547e+00 0.000000e+00 0.000000e+00  3.225618e+00 0.000000e+00 0.000000e+00  3.413600e+00 3.705632e-01 0.000000e+00  3.576592e+00 7.608358e-01 0.000000e+00  3.711185e+00 1.167831e+00 0.000000e+00  3.814057e+00 1.588186e+00 0.000000e+00  3.882023e+00 2.018173e+00 0.000000e+00  3.912077e+00 2.453720e+00 0.000000e+00  3.901432e+00 2.890428e+00 0.000000e+00  3.847570e+00 3.323602e+00 0.000000e+00  3.748285e+00 3.748285e+00 0.000000e+00  3.601727e+00 4.159290e+00 0.000000e+00  3.406445e+00 4.551246e+00 0.000000e+00  3.161428e+00 4.918642e+00 0.000000e+00  2.866147e+00 5.255884e+00 0.000000e+00  2.520589e+00 5.557343e+00 0.000000e+00  2.125292e+00 5.817421e+00 0.000000e+00  1.681374e+00 6.030611e+00 0.000000e+00  1.190559e+00 6.191564e+00 0.000000e+00  6.551953e-01 6.295157e+00 0.000000e+00  7.827263e-02 6.336566e+00 0.000000e+00  -5.365709e-01 6.311336e+00 0.000000e+00  -1.185046e+00 6.215454e+00 0.000000e+00  -1.862219e+00 6.045422e+00 0.000000e+00  -2.562519e+00 5.798327e+00 0.000000e+00  -3.279766e+00 5.471915e+00 0.000000e+00  -4.007190e+00 5.064652e+00 0.000000e+00  -4.737476e+00 4.575792e+00 0.000000e+00  -5.462800e+00 4.005435e+00 0.000000e+00  -6.174891e+00 3.354577e+00 0.000000e+00  -6.865083e+00 2.625164e+00 0.000000e+00  -7.524395e+00 1.820125e+00 0.000000e+00  -8.143599e+00 9.434074e-01 0.000000e+00  -8.713314e+00 0.000000e+00 0.000000e+00  3.578821e+00 0.000000e+00 0.000000e+00  3.787472e+00 3.560307e-01 0.000000e+00  3.968394e+00 7.310114e-01 0.000000e+00  4.117801e+00 1.122072e+00 0.000000e+00  4.232009e+00 1.525982e+00 0.000000e+00  4.307484e+00 1.939158e+00 0.000000e+00  4.340887e+00 2.357686e+00 0.000000e+00  4.329128e+00 2.777341e+00 0.000000e+00  4.269412e+00 3.193610e+00 0.000000e+00  4.159290e+00 3.601727e+00 0.000000e+00  3.996710e+00 3.996710e+00 0.000000e+00  3.780059e+00 4.373394e+00 0.000000e+00  3.508218e+00 4.726485e+00 0.000000e+00  3.180597e+00 5.050605e+00 0.000000e+00  2.797182e+00 5.340344e+00 0.000000e+00  2.358570e+00 5.590322e+00 0.000000e+00  1.866000e+00 5.795246e+00 0.000000e+00  1.321384e+00 5.949973e+00 0.000000e+00  7.273285e-01 6.049580e+00 0.000000e+00  8.714954e-02 6.089429e+00 0.000000e+00  -5.951165e-01 6.065238e+00 0.000000e+00  -1.314711e+00 5.973148e+00 0.000000e+00  -2.066158e+00 5.809797e+00 0.000000e+00  -2.843280e+00 5.572383e+00 0.000000e+00  -3.639217e+00 5.258737e+00 0.000000e+00  -4.446460e+00 4.867384e+00 0.000000e+00  -5.256889e+00 4.397605e+00 0.000000e+00  -6.061827e+00 3.849493e+00 0.000000e+00  -6.852092e+00 3.224004e+00 0.000000e+00  -7.618073e+00 2.523005e+00 0.000000e+00  -8.349800e+00 1.749310e+00 0.000000e+00  -9.037035e+00 9.067111e-01 0.000000e+00  -9.669367e+00 0.000000e+00 0.000000e+00  3.915570e+00 0.000000e+00 0.000000e+00  4.143941e+00 3.366832e-01 0.000000e+00  4.341970e+00 6.913005e-01 0.000000e+00  4.505514e+00 1.061138e+00 0.000000e+00  4.630543e+00 1.443138e+00 0.000000e+00  4.713187e+00 1.833913e+00 0.000000e+00  4.749794e+00 2.229761e+00 0.000000e+00  4.736982e+00 2.626685e+00 0.000000e+00  4.671693e+00 3.020415e+00 0.000000e+00  4.551246e+00 3.406445e+00 0.000000e+00  4.373394e+00 3.780059e+00 0.000000e+00  4.136374e+00 4.136374e+00 0.000000e+00  3.838959e+00 4.470381e+00 0.000000e+00  3.480505e+00 4.776992e+00 0.000000e+00  3.060994e+00 5.051089e+00 0.000000e+00  2.581079e+00 5.287582e+00 0.000000e+00  2.042116e+00 5.481464e+00 0.000000e+00  1.446197e+00 5.627869e+00 0.000000e+00  7.961711e-01 5.722140e+00 0.000000e+00  9.566798e-02 5.759888e+00 0.000000e+00  -6.508968e-01 5.737061e+00 0.000000e+00  -1.438317e+00 5.650008e+00 0.000000e+00  -2.260602e+00 5.495545e+00 0.000000e+00  -3.110991e+00 5.271023e+00 0.000000e+00  -3.981980e+00 4.974386e+00 0.000000e+00  -4.865351e+00 4.604239e+00 0.000000e+00  -5.752223e+00 4.159897e+00 0.000000e+00  -6.633097e+00 3.641447e+00 0.000000e+00  -7.497931e+00 3.049793e+00 0.000000e+00  -8.336204e+00 2.386696e+00 0.000000e+00  -9.137009e+00 1.654817e+00 0.000000e+00  -9.889143e+00 8.577417e-01 0.000000e+00  -1.058121e+01 0.000000e+00 0.000000e+00  4.231134e+00 0.000000e+00 0.000000e+00  4.477997e+00 3.124213e-01 0.000000e+00  4.692070e+00 6.414988e-01 0.000000e+00  4.868876e+00 9.847131e-01 0.000000e+00  5.004056e+00 1.339227e+00 0.000000e+00  5.093431e+00 1.701897e+00 0.000000e+00  5.133052e+00 2.069285e+00 0.000000e+00  5.119263e+00 2.437681e+00 0.000000e+00  5.048758e+00 2.803124e+00 0.000000e+00  4.918642e+00 3.161428e+00 0.000000e+00  4.726485e+00 3.508218e+00 0.000000e+00  4.470381e+00 3.838959e+00 0.000000e+00  4.149003e+00 4.149003e+00 0.000000e+00  3.761654e+00 4.433625e+00 0.000000e+00  3.308315e+00 4.688076e+00 0.000000e+00  2.789691e+00 4.907629e+00 0.000000e+00  2.207246e+00 5.087636e+00 0.000000e+00  1.563240e+00 5.223579e+00 0.000000e+00  8.607536e-01 5.311135e+00 0.000000e+00  1.037063e-01 5.346229e+00 0.000000e+00  -7.031298e-01 5.325097e+00 0.000000e+00  -1.554129e+00 5.244350e+00 0.000000e+00  -2.442817e+00 5.101030e+00 0.000000e+00  -3.361890e+00 4.892677e+00 0.000000e+00  -4.303236e+00 4.617381e+00 0.000000e+00  -5.257977e+00 4.273844e+00 0.000000e+00  -6.216513e+00 3.861428e+00 0.000000e+00  -7.168582e+00 3.380213e+00 0.000000e+00  -8.103327e+00 2.831034e+00 0.000000e+00  -9.009381e+00 2.215525e+00 0.000000e+00  -9.874955e+00 1.536153e+00 0.000000e+00  -1.068794e+01 7.962434e-01 0.000000e+00  -1.143602e+01 0.000000e+00 0.000000e+00  4.520709e+00 0.000000e+00 0.000000e+00  4.784555e+00 2.831931e-01 0.000000e+00  5.013365e+00 5.814993e-01 0.000000e+00  5.202353e+00 8.926347e-01 0.000000e+00  5.346862e+00 1.214027e+00 0.000000e+00  5.442425e+00 1.542824e+00 0.000000e+00  5.484822e+00 1.875911e+00 0.000000e+00  5.470147e+00 2.209922e+00 0.000000e+00  5.394866e+00 2.541266e+00 0.000000e+00  5.255884e+00 2.866147e+00 0.000000e+00  5.050605e+00 3.180597e+00 0.000000e+00  4.776992e+00 3.480505e+00 0.000000e+00  4.433625e+00 3.761654e+00 0.000000e+00  4.019761e+00 4.019761e+00 0.000000e+00  3.535377e+00 4.250517e+00 0.000000e+00  2.981226e+00 4.449637e+00 0.000000e+00  2.358873e+00 4.612904e+00 0.000000e+00  1.670731e+00 4.736223e+00 0.000000e+00  9.200906e-01 4.815670e+00 0.000000e+00  1.111405e-01 4.847549e+00 0.000000e+00  -7.510212e-01 4.828447e+00 0.000000e+00  -1.660384e+00 4.755288e+00 0.000000e+00  -2.610030e+00 4.625390e+00 0.000000e+00  -3.592155e+00 4.436518e+00 0.000000e+00  -4.598093e+00 4.186940e+00 0.000000e+00  -5.618357e+00 3.875475e+00 0.000000e+00  -6.642689e+00 3.501545e+00 0.000000e+00  -7.660122e+00 3.065217e+00 0.000000e+00  -8.659058e+00 2.567248e+00 0.000000e+00  -9.627349e+00 2.009116e+00 0.000000e+00  -1.055240e+01 1.393056e+00 0.000000e+00  -1.142126e+01 7.220810e-01 0.000000e+00  -1.222078e+01 0.000000e+00 0.000000e+00  4.779463e+00 0.000000e+00 0.000000e+00  5.058500e+00 2.489976e-01 0.000000e+00  5.300493e+00 5.113005e-01 0.000000e+00  5.500382e+00 7.848995e-01 0.000000e+00  5.653241e+00 1.067532e+00 0.000000e+00  5.754347e+00 1.356690e+00 0.000000e+00  5.799237e+00 1.649633e+00 0.000000e+00  5.783780e+00 1.943399e+00 0.000000e+00  5.704240e+00 2.234831e+00 0.000000e+00  5.557343e+00 2.520589e+00 0.000000e+00  5.340344e+00 2.797182e+00 0.000000e+00  5.051089e+00 3.060994e+00 0.000000e+00  4.688076e+00 3.308315e+00 0.000000e+00  4.250517e+00 3.535377e+00 0.000000e+00  3.738390e+00 3.738390e+00 0.000000e+00  3.152488e+00 3.913582e+00 0.000000e+00  2.494465e+00 4.057244e+00 0.000000e+00  1.766873e+00 4.165773e+00 0.000000e+00  9.731909e-01 4.235715e+00 0.000000e+00  1.178456e-01 4.263819e+00 0.000000e+00  -7.937728e-01 4.247080e+00 0.000000e+00  -1.755309e+00 4.182792e+00 0.000000e+00  -2.759451e+00 4.068594e+00 0.000000e+00  -3.797946e+00 3.902516e+00 0.000000e+00  -4.861632e+00 3.683034e+00 0.000000e+00  -5.940477e+00 3.409107e+00 0.000000e+00  -7.023637e+00 3.080222e+00 0.000000e+00  -8.099516e+00 2.696438e+00 0.000000e+00  -9.155850e+00 2.258416e+00 0.000000e+00  -1.017979e+01 1.767455e+00 0.000000e+00  -1.115803e+01 1.225517e+00 0.000000e+00