<?xml version="1.0"?>
<VTKFile type="UnstructuredGrid"  version="0.1"  >
<UnstructuredGrid>
<Piece  NumberOfPoints="4225" NumberOfCells="8192">
<Points>
<DataArray  type="Float32"  NumberOfComponents="3"  format="ascii">0 0 0  0.015625 0 0  0.03125 0 0  0.046875 0 0  0.0625 0 0  0.078125 0 0  0.09375 0 0  0.109375 0 0  0.125 0 0  0.140625 0 0  0.15625 0 0  0.171875 0 0  0.1875 0 0  0.203125 0 0  0.21875 0 0  0.234375 0 0  0.25 0 0  0.265625 0 0  0.28125 0 0  0.296875 0 0  0.3125 0 0  0.328125 0 0  0.34375 0 0  0.359375 0 0  0.375 0 0  0.390625 0 0  0.40625 0 0  0.421875 0 0  0.4375 0 0  0.453125 0 0  0.46875 0 0  0.484375 0 0  0.5 0 0  0.515625 0 0  0.53125 0 0  0.546875 0 0  0.5625 0 0  0.578125 0 0  0.59375 0 0  0.609375 0 0  0.625 0 0  0.640625 0 0  0.65625 0 0  0.671875 0 0  0.6875 0 0  0.703125 0 0  0.71875 0 0  0.734375 0 0  0.75 0 0  0.765625 0 0  0.78125 0 0  0.796875 0 0  0.8125 0 0  0.828125 0 0  0.84375 0 0  0.859375 0 0  0.875 0 0  0.890625 0 0  0.90625 0 0  0.921875 0 0  0.9375 0 0  0.953125 0 0  0.96875 0 0  0.984375 0 0  1 0 0  0 0.015625 0  0.015625 0.015625 0  0.03125 0.015625 0  0.046875 0.015625 0  0.0625 0.015625 0  0.078125 0.015625 0  0.09375 0.015625 0  0.109375 0.015625 0  0.125 0.015625 0  0.140625 0.015625 0  0.15625 0.015625 0  0.171875 0.015625 0  0.1875 0.015625 0  0.203125 0.015625 0  0.21875 0.015625 0  0.234375 0.015625 0  0.25 0.015625 0  0.265625 0.015625 0  0.28125 0.015625 0  0.296875 0.015625 0  0.3125 0.015625 0  0.328125 0.015625 0  0.34375 0.015625 0  0.359375 0.015625 0  0.375 0.015625 0  0.390625 0.015625 0  0.40625 0.015625 0  0.421875 0.015625 0  0.4375 0.015625 0  0.453125 0.015625 0  0.46875 0.015625 0  0.484375 0.015625 0  0.5 0.015625 0  0.515625 0.015625 0  0.53125 0.015625 0  0.546875 0.015625 0  0.5625 0.015625 0  0.578125 0.015625 0  0.59375 0.015625 0  0.609375 0.015625 0  0.625 0.015625 0  0.640625 0.015625 0  0.65625 0.015625 0  0.671875 0.015625 0  0.6875 0.015625 0  0.703125 0.015625 0  0.71875 0.015625 0  0.734375 0.015625 0  0.75 0.015625 0  0.765625 0.015625 0  0.78125 0.015625 0  0.796875 0.015625 0  0.8125 0.015625 0  0.828125 0.015625 0  0.84375 0.015625 0  0.859375 0.015625 0  0.875 0.015625 0  0.890625 0.015625 0  0.90625 0.015625 0  0.921875 0.015625 0  0.9375 0.015625 0  0.953125 0.015625 0  0.96875 0.015625 0  0.984375 0.015625 0  1 0.015625 0  0 0.03125 0  0.015625 0.03125 0  0.03125 0.03125 0  0.046875 0.03125 0  0.0625 0.03125 0  0.078125 0.03125 0  0.09375 0.03125 0  0.109375 0.03125 0  0.125 0.03125 0  0.140625 0.03125 0  0.15625 0.03125 0  0.171875 0.03125 0  0.1875 0.03125 0  0.203125 0.03125 0  0.21875 0.03125 0  0.234375 0.03125 0  0.25 0.03125 0  0.265625 0.03125 0  0.28125 0.03125 0  0.296875 0.03125 0  0.3125 0.03125 0  0.328125 0.03125 0  0.34375 0.03125 0  0.359375 0.03125 0  0.375 0.03125 0  0.390625 0.03125 0  0.40625 0.03125 0  0.421875 0.03125 0  0.4375 0.03125 0  0.453125 0.03125 0  0.46875 0.03125 0  0.484375 0.03125 0  0.5 0.03125 0  0.515625 0.03125 0  0.53125 0.03125 0  0.546875 0.03125 0  0.5625 0.03125 0  0.578125 0.03125 0  0.59375 0.03125 0  0.609375 0.03125 0  0.625 0.03125 0  0.640625 0.03125 0  0.65625 0.03125 0  0.671875 0.03125 0  0.6875 0.03125 0  0.703125 0.03125 0  0.71875 0.03125 0  0.734375 0.03125 0  0.75 0.03125 0  0.765625 0.03125 0  0.78125 0.03125 0  0.796875 0.03125 0  0.8125 0.03125 0  0.828125 0.03125 0  0.84375 0.03125 0  0.859375 0.03125 0  0.875 0.03125 0  0.890625 0.03125 0  0.90625 0.03125 0  0.921875 0.03125 0  0.9375 0.03125 0  0.953125 0.03125 0  0.96875 0.03125 0  0.984375 0.03125 0  1 0.03125 0  0 0.046875 0  0.015625 0.046875 0  0.03125 0.046875 0  0.046875 0.046875 0  0.0625 0.046875 0  0.078125 0.046875 0  0.09375 0.046875 0  0.109375 0.046875 0  0.125 0.046875 0  0.140625 0.046875 0  0.15625 0.046875 0  0.171875 0.046875 0  0.1875 0.046875 0  0.203125 0.046875 0  0.21875 0.046875 0  0.234375 0.046875 0  0.25 0.046875 0  0.265625 0.046875 0  0.28125 0.046875 0  0.296875 0.046875 0  0.3125 0.046875 0  0.328125 0.046875 0  0.34375 0.046875 0  0.359375 0.046875 0  0.375 0.046875 0  0.390625 0.046875 0  0.40625 0.046875 0  0.421875 0.046875 0  0.4375 0.046875 0  0.453125 0.046875 0  0.46875 0.046875 0  0.484375 0.046875 0  0.5 0.046875 0  0.515625 0.046875 0  0.53125 0.046875 0  0.546875 0.046875 0  0.5625 0.046875 0  0.578125 0.046875 0  0.59375 0.046875 0  0.609375 0.046875 0  0.625 0.046875 0  0.640625 0.046875 0  0.65625 0.046875 0  0.671875 0.046875 0  0.6875 0.046875 0  0.703125 0.046875 0  0.71875 0.046875 0  0.734375 0.046875 0  0.75 0.046875 0  0.765625 0.046875 0  0.78125 0.046875 0  0.796875 0.046875 0  0.8125 0.046875 0  0.828125 0.046875 0  0.84375 0.046875 0  0.859375 0.046875 0  0.875 0.046875 0  0.890625 0.046875 0  0.90625 0.046875 0  0.921875 0.046875 0  0.9375 0.046875 0  0.953125 0.046875 0  0.96875 0.046875 0  0.984375 0.046875 0  1 0.046875 0  0 0.0625 0  0.015625 0.0625 0  0.03125 0.0625 0  0.046875 0.0625 0  0.0625 0.0625 0  0.078125 0.0625 0  0.09375 0.0625 0  0.109375 0.0625 0  0.125 0.0625 0  0.140625 0.0625 0  0.15625 0.0625 0  0.171875 0.0625 0  0.1875 0.0625 0  0.203125 0.0625 0  0.21875 0.0625 0  0.234375 0.0625 0  0.25 0.0625 0  0.265625 0.0625 0  0.28125 0.0625 0  0.296875 0.0625 0  0.3125 0.0625 0  0.328125 0.0625 0  0.34375 0.0625 0  0.359375 0.0625 0  0.375 0.0625 0  0.390625 0.0625 0  0.40625 0.0625 0  0.421875 0.0625 0  0.4375 0.0625 0  0.453125 0.0625 0  0.46875 0.0625 0  0.484375 0.0625 0  0.5 0.0625 0  0.515625 0.0625 0  0.53125 0.0625 0  0.546875 0.0625 0  0.5625 0.0625 0  0.578125 0.0625 0  0.59375 0.0625 0  0.609375 0.0625 0  0.625 0.0625 0  0.640625 0.0625 0  0.65625 0.0625 0  0.671875 0.0625 0  0.6875 0.0625 0  0.703125 0.0625 0  0.71875 0.0625 0  0.734375 0.0625 0  0.75 0.0625 0  0.765625 0.0625 0  0.78125 0.0625 0  0.796875 0.0625 0  0.8125 0.0625 0  0.828125 0.0625 0  0.84375 0.0625 0  0.859375 0.0625 0  0.875 0.0625 0  0.890625 0.0625 0  0.90625 0.0625 0  0.921875 0.0625 0  0.9375 0.0625 0  0.953125 0.0625 0  0.96875 0.0625 0  0.984375 0.0625 0  1 0.0625 0  0 0.078125 0  0.015625 0.078125 0  0.03125 0.078125 0  0.046875 0.078125 0  0.0625 0.078125 0  0.078125 0.078125 0  0.09375 0.078125 0  0.109375 0.078125 0  0.125 0.078125 0  0.140625 0.078125 0  0.15625 0.078125 0  0.171875 0.078125 0  0.1875 0.078125 0  0.203125 0.078125 0  0.21875 0.078125 0  0.234375 0.078125 0  0.25 0.078125 0  0.265625 0.078125 0  0.28125 0.078125 0  0.296875 0.078125 0  0.3125 0.078125 0  0.328125 0.078125 0  0.34375 0.078125 0  0.359375 0.078125 0  0.375 0.078125 0  0.390625 0.078125 0  0.40625 0.078125 0  0.421875 0.078125 0  0.4375 0.078125 0  0.453125 0.078125 0  0.46875 0.078125 0  0.484375 0.078125 0  0.5 0.078125 0  0.515625 0.078125 0  0.53125 0.078125 0  0.546875 0.078125 0  0.5625 0.078125 0  0.578125 0.078125 0  0.59375 0.078125 0  0.609375 0.078125 0  0.625 0.078125 0  0.640625 0.078125 0  0.65625 0.078125 0  0.671875 0.078125 0  0.6875 0.078125 0  0.703125 0.078125 0  0.71875 0.078125 0  0.734375 0.078125 0  0.75 0.078125 0  0.765625 0.078125 0  0.78125 0.078125 0  0.796875 0.078125 0  0.8125 0.078125 0  0.828125 0.078125 0  0.84375 0.078125 0  0.859375 0.078125 0  0.875 0.078125 0  0.890625 0.078125 0  0.90625 0.078125 0  0.921875 0.078125 0  0.9375 0.078125 0  0.953125 0.078125 0  0.96875 0.078125 0  0.984375 0.078125 0  1 0.078125 0  0 0.09375 0  0.015625 0.09375 0  0.03125 0.09375 0  0.046875 0.09375 0  0.0625 0.09375 0  0.078125 0.09375 0  0.09375 0.09375 0  0.109375 0.09375 0  0.125 0.09375 0  0.140625 0.09375 0  0.15625 0.09375 0  0.171875 0.09375 0  0.1875 0.09375 0  0.203125 0.09375 0  0.21875 0.09375 0  0.234375 0.09375 0  0.25 0.09375 0  0.265625 0.09375 0  0.28125 0.09375 0  0.296875 0.09375 0  0.3125 0.09375 0  0.328125 0.09375 0  0.34375 0.09375 0  0.359375 0.09375 0  0.375 0.09375 0  0.390625 0.09375 0  0.40625 0.09375 0  0.421875 0.09375 0  0.4375 0.09375 0  0.453125 0.09375 0  0.46875 0.09375 0  0.484375 0.09375 0  0.5 0.09375 0  0.515625 0.09375 0  0.53125 0.09375 0  0.546875 0.09375 0  0.5625 0.09375 0  0.578125 0.09375 0  0.59375 0.09375 0  0.609375 0.09375 0  0.625 0.09375 0  0.640625 0.09375 0  0.65625 0.09375 0  0.671875 0.09375 0  0.6875 0.09375 0  0.703125 0.09375 0  0.71875 0.09375 0  0.734375 0.09375 0  0.75 0.09375 0  0.765625 0.09375 0  0.78125 0.09375 0  0.796875 0.09375 0  0.8125 0.09375 0  0.828125 0.09375 0  0.84375 0.09375 0  0.859375 0.09375 0  0.875 0.09375 0  0.890625 0.09375 0  0.90625 0.09375 0  0.921875 0.09375 0  0.9375 0.09375 0  0.953125 0.09375 0  0.96875 0.09375 0  0.984375 0.09375 0  1 0.09375 0  0 0.109375 0  0.015625 0.109375 0  0.03125 0.109375 0  0.046875 0.109375 0  0.0625 0.109375 0  0.078125 0.109375 0  0.09375 0.109375 0  0.109375 0.109375 0  0.125 0.109375 0  0.140625 0.109375 0  0.15625 0.109375 0  0.171875 0.109375 0  0.1875 0.109375 0  0.203125 0.109375 0  0.21875 0.109375 0  0.234375 0.109375 0  0.25 0.109375 0  0.265625 0.109375 0  0.28125 0.109375 0  0.296875 0.109375 0  0.3125 0.109375 0  0.328125 0.109375 0  0.34375 0.109375 0  0.359375 0.109375 0  0.375 0.109375 0  0.390625 0.109375 0  0.40625 0.109375 0  0.421875 0.109375 0  0.4375 0.109375 0  0.453125 0.109375 0  0.46875 0.109375 0  0.484375 0.109375 0  0.5 0.109375 0  0.515625 0.109375 0  0.53125 0.109375 0  0.546875 0.109375 0  0.5625 0.109375 0  0.578125 0.109375 0  0.59375 0.109375 0  0.609375 0.109375 0  0.625 0.109375 0  0.640625 0.109375 0  0.65625 0.109375 0  0.671875 0.109375 0  0.6875 0.109375 0  0.703125 0.109375 0  0.71875 0.109375 0  0.734375 0.109375 0  0.75 0.109375 0  0.765625 0.109375 0  0.78125 0.109375 0  0.796875 0.109375 0  0.8125 0.109375 0  0.828125 0.109375 0  0.84375 0.109375 0  0.859375 0.109375 0  0.875 0.109375 0  0.890625 0.109375 0  0.90625 0.109375 0  0.921875 0.109375 0  0.9375 0.109375 0  0.953125 0.109375 0  0.96875 0.109375 0  0.984375 0.109375 0  1 0.109375 0  0 0.125 0  0.015625 0.125 0  0.03125 0.125 0  0.046875 0.125 0  0.0625 0.125 0  0.078125 0.125 0  0.09375 0.125 0  0.109375 0.125 0  0.125 0.12
[...]
<PointData  Vectors="u"> 
<DataArray  type="Float32"  Name="u"  NumberOfComponents="3" format="ascii">0.000000e+00 0.000000e+00 0.000000e+00  0.000000e+00 1.565782e-01 0.000000e+00  0.000000e+00 3.177047e-01 0.000000e+00  0.000000e+00 4.830897e-01 0.000000e+00  0.000000e+00 6.524227e-01 0.000000e+00  0.000000e+00 8.253725e-01 0.000000e+00  0.000000e+00 1.001588e+00 0.000000e+00  0.000000e+00 1.180698e+00 0.000000e+00  0.000000e+00 1.362311e+00 0.000000e+00  0.000000e+00 1.546018e+00 0.000000e+00  0.000000e+00 1.731390e+00 0.000000e+00  0.000000e+00 1.917980e+00 0.000000e+00  0.000000e+00 2.105325e+00 0.000000e+00  0.000000e+00 2.292942e+00 0.000000e+00  0.000000e+00 2.480335e+00 0.000000e+00  0.000000e+00 2.666992e+00 0.000000e+00  0.000000e+00 2.852387e+00 0.000000e+00  0.000000e+00 3.035980e+00 0.000000e+00  0.000000e+00 3.217219e+00 0.000000e+00  0.000000e+00 3.395540e+00 0.000000e+00  0.000000e+00 3.570370e+00 0.000000e+00  0.000000e+00 3.741129e+00 0.000000e+00  0.000000e+00 3.907225e+00 0.000000e+00  0.000000e+00 4.068064e+00 0.000000e+00  0.000000e+00 4.223044e+00 0.000000e+00  0.000000e+00 4.371564e+00 0.000000e+00  0.000000e+00 4.513016e+00 0.000000e+00  0.000000e+00 4.646796e+00 0.000000e+00  0.000000e+00 4.772299e+00 0.000000e+00  0.000000e+00 4.888925e+00 0.000000e+00  0.000000e+00 4.996077e+00 0.000000e+00  0.000000e+00 5.093166e+00 0.000000e+00  0.000000e+00 5.179611e+00 0.000000e+00  0.000000e+00 5.254840e+00 0.000000e+00  0.000000e+00 5.318296e+00 0.000000e+00  0.000000e+00 5.369433e+00 0.000000e+00  0.000000e+00 5.407723e+00 0.000000e+00  0.000000e+00 5.432655e+00 0.000000e+00  0.000000e+00 5.443736e+00 0.000000e+00  0.000000e+00 5.440499e+00 0.000000e+00  0.000000e+00 5.422496e+00 0.000000e+00  0.000000e+00 5.389309e+00 0.000000e+00  0.000000e+00 5.340543e+00 0.000000e+00  0.000000e+00 5.275837e+00 0.000000e+00  0.000000e+00 5.194858e+00 0.000000e+00  0.000000e+00 5.097309e+00 0.000000e+00  0.000000e+00 4.982925e+00 0.000000e+00  0.000000e+00 4.851482e+00 0.000000e+00  0.000000e+00 4.702792e+00 0.000000e+00  0.000000e+00 4.536707e+00 0.000000e+00  0.000000e+00 4.353124e+00 0.000000e+00  0.000000e+00 4.151981e+00 0.000000e+00  0.000000e+00 3.933264e+00 0.000000e+00  0.000000e+00 3.697004e+00 0.000000e+00  0.000000e+00 3.443280e+00 0.000000e+00  0.000000e+00 3.172223e+00 0.000000e+00  0.000000e+00 2.884013e+00 0.000000e+00  0.000000e+00 2.578881e+00 0.000000e+00  0.000000e+00 2.257113e+00 0.000000e+00  0.000000e+00 1.919048e+00 0.000000e+00  0.000000e+00 1.565080e+00 0.000000e+00  0.000000e+00 1.195658e+00 0.000000e+00  0.000000e+00 8.112872e-01 0.000000e+00  0.000000e+00 4.125284e-01 0.000000e+00  0.000000e+00 0.000000e+00 0.000000e+00  1.565782e-01 0.000000e+00 0.000000e+00  1.613365e-01 1.613365e-01 0.000000e+00  1.658109e-01 3.273594e-01 0.000000e+00  1.699806e-01 4.977703e-01 0.000000e+00  1.738245e-01 6.722490e-01 0.000000e+00  1.773219e-01 8.504547e-01 0.000000e+00  1.804525e-01 1.032025e+00 0.000000e+00  1.831962e-01 1.216578e+00 0.000000e+00  1.855332e-01 1.403710e+00 0.000000e+00  1.874444e-01 1.593000e+00 0.000000e+00  1.889111e-01 1.784005e+00 0.000000e+00  1.899153e-01 1.976266e+00 0.000000e+00  1.904395e-01 2.169303e+00 0.000000e+00  1.904671e-01 2.362622e+00 0.000000e+00  1.899822e-01 2.555710e+00 0.000000e+00  1.889700e-01 2.748039e+00 0.000000e+00  1.874163e-01 2.939068e+00 0.000000e+00  1.853083e-01 3.128240e+00 0.000000e+00  1.826339e-01 3.314986e+00 0.000000e+00  1.793824e-01 3.498726e+00 0.000000e+00  1.755443e-01 3.678870e+00 0.000000e+00  1.711112e-01 3.854817e+00 0.000000e+00  1.660763e-01 4.025961e+00 0.000000e+00  1.604340e-01 4.191688e+00 0.000000e+00  1.541802e-01 4.351378e+00 0.000000e+00  1.473124e-01 4.504411e+00 0.000000e+00  1.398295e-01 4.650161e+00 0.000000e+00  1.317323e-01 4.788007e+00 0.000000e+00  1.230230e-01 4.917324e+00 0.000000e+00  1.137057e-01 5.037494e+00 0.000000e+00  1.037862e-01 5.147902e+00 0.000000e+00  9.327210e-02 5.247941e+00 0.000000e+00  8.217289e-02 5.337013e+00 0.000000e+00  7.049990e-02 5.414529e+00 0.000000e+00  5.826638e-02 5.479913e+00 0.000000e+00  4.548749e-02 5.532604e+00 0.000000e+00  3.218036e-02 5.572058e+00 0.000000e+00  1.836409e-02 5.597747e+00 0.000000e+00  4.059761e-03 5.609165e+00 0.000000e+00  -1.070958e-02 5.605829e+00 0.000000e+00  -2.591889e-02 5.587280e+00 0.000000e+00  -4.154114e-02 5.553084e+00 0.000000e+00  -5.754734e-02 5.502836e+00 0.000000e+00  -7.390655e-02 5.436164e+00 0.000000e+00  -9.058587e-02 5.352724e+00 0.000000e+00  -1.075505e-01 5.252210e+00 0.000000e+00  -1.247638e-01 5.134351e+00 0.000000e+00  -1.421873e-01 4.998913e+00 0.000000e+00  -1.597807e-01 4.845704e+00 0.000000e+00  -1.775019e-01 4.674572e+00 0.000000e+00  -1.953073e-01 4.485410e+00 0.000000e+00  -2.131515e-01 4.278155e+00 0.000000e+00  -2.309878e-01 4.052791e+00 0.000000e+00  -2.487677e-01 3.809352e+00 0.000000e+00  -2.664415e-01 3.547918e+00 0.000000e+00  -2.839583e-01 3.268624e+00 0.000000e+00  -3.012659e-01 2.971655e+00 0.000000e+00  -3.183110e-01 2.657250e+00 0.000000e+00  -3.350393e-01 2.325704e+00 0.000000e+00  -3.513957e-01 1.977366e+00 0.000000e+00  -3.673242e-01 1.612641e+00 0.000000e+00  -3.827685e-01 1.231993e+00 0.000000e+00  -3.976714e-01 8.359413e-01 0.000000e+00  -4.119757e-01 4.250647e-01 0.000000e+00  -4.256237e-01 0.000000e+00 0.000000e+00  3.177047e-01 0.000000e+00 0.000000e+00  3.273594e-01 1.658109e-01 0.000000e+00  3.364383e-01 3.364383e-01 0.000000e+00  3.448987e-01 5.115753e-01 0.000000e+00  3.526982e-01 6.908931e-01 0.000000e+00  3.597947e-01 8.740410e-01 0.000000e+00  3.661469e-01 1.060647e+00 0.000000e+00  3.717139e-01 1.250318e+00 0.000000e+00  3.764558e-01 1.442641e+00 0.000000e+00  3.803337e-01 1.637180e+00 0.000000e+00  3.833098e-01 1.833483e+00 0.000000e+00  3.853472e-01 2.031075e+00 0.000000e+00  3.864108e-01 2.229466e+00 0.000000e+00  3.864668e-01 2.428146e+00 0.000000e+00  3.854831e-01 2.626589e+00 0.000000e+00  3.834292e-01 2.824253e+00 0.000000e+00  3.802768e-01 3.020580e+00 0.000000e+00  3.759994e-01 3.214998e+00 0.000000e+00  3.705730e-01 3.406923e+00 0.000000e+00  3.639756e-01 3.595759e+00 0.000000e+00  3.561878e-01 3.780899e+00 0.000000e+00  3.471930e-01 3.961726e+00 0.000000e+00  3.369769e-01 4.137616e+00 0.000000e+00  3.255283e-01 4.307939e+00 0.000000e+00  3.128390e-01 4.472058e+00 0.000000e+00  2.989039e-01 4.629335e+00 0.000000e+00  2.837208e-01 4.779128e+00 0.000000e+00  2.672911e-01 4.920796e+00 0.000000e+00  2.496196e-01 5.053700e+00 0.000000e+00  2.307143e-01 5.177203e+00 0.000000e+00  2.105872e-01 5.290673e+00 0.000000e+00  1.892536e-01 5.393487e+00 0.000000e+00  1.667328e-01 5.485029e+00 0.000000e+00  1.430477e-01 5.564695e+00 0.000000e+00  1.182253e-01 5.631892e+00 0.000000e+00  9.229632e-02 5.686045e+00 0.000000e+00  6.529552e-02 5.726592e+00 0.000000e+00  3.726165e-02 5.752994e+00 0.000000e+00  8.237471e-03 5.764729e+00 0.000000e+00  -2.173023e-02 5.761300e+00 0.000000e+00  -5.259065e-02 5.742236e+00 0.000000e+00  -8.428895e-02 5.707092e+00 0.000000e+00  -1.167663e-01 5.655451e+00 0.000000e+00  -1.499599e-01 5.586929e+00 0.000000e+00  -1.838031e-01 5.501176e+00 0.000000e+00  -2.182251e-01 5.397874e+00 0.000000e+00  -2.531518e-01 5.276746e+00 0.000000e+00  -2.885049e-01 5.137552e+00 0.000000e+00  -3.242027e-01 4.980094e+00 0.000000e+00  -3.601599e-01 4.804216e+00 0.000000e+00  -3.962879e-01 4.609808e+00 0.000000e+00  -4.324947e-01 4.396805e+00 0.000000e+00  -4.686852e-01 4.165191e+00 0.000000e+00  -5.047615e-01 3.914999e+00 0.000000e+00  -5.406226e-01 3.646315e+00 0.000000e+00  -5.761651e-01 3.359275e+00 0.000000e+00  -6.112830e-01 3.054070e+00 0.000000e+00  -6.458683e-01 2.730946e+00 0.000000e+00  -6.798108e-01 2.390205e+00 0.000000e+00  -7.129987e-01 2.032206e+00 0.000000e+00  -7.453185e-01 1.657366e+00 0.000000e+00  -7.766556e-01 1.266161e+00 0.000000e+00  -8.068944e-01 8.591251e-01 0.000000e+00  -8.359184e-01 4.368533e-01 0.000000e+00  -8.636110e-01 0.000000e+00 0.000000e+00  4.830897e-01 0.000000e+00 0.000000e+00  4.977703e-01 1.699806e-01 0.000000e+00  5.115753e-01 3.448987e-01 0.000000e+00  5.244399e-01 5.244399e-01 0.000000e+00  5.362995e-01 7.082670e-01 0.000000e+00  5.470902e-01 8.960205e-01 0.000000e+00  5.567490e-01 1.087319e+00 0.000000e+00  5.652140e-01 1.281760e+00 0.000000e+00  5.724244e-01 1.478919e+00 0.000000e+00  5.783210e-01 1.678350e+00 0.000000e+00  5.828462e-01 1.879589e+00 0.000000e+00  5.859443e-01 2.082151e+00 0.000000e+00  5.875616e-01 2.285530e+00 0.000000e+00  5.876467e-01 2.489207e+00 0.000000e+00  5.861509e-01 2.692640e+00 0.000000e+00  5.830278e-01 2.895274e+00 0.000000e+00  5.782344e-01 3.096538e+00 0.000000e+00  5.717304e-01 3.295846e+00 0.000000e+00  5.634792e-01 3.492597e+00 0.000000e+00  5.534474e-01 3.686182e+00 0.000000e+00  5.416057e-01 3.875977e+00 0.000000e+00  5.279284e-01 4.061352e+00 0.000000e+00  5.123942e-01 4.241665e+00 0.000000e+00  4.949860e-01 4.416271e+00 0.000000e+00  4.756912e-01 4.584517e+00 0.000000e+00  4.545019e-01 4.745749e+00 0.000000e+00  4.314150e-01 4.899309e+00 0.000000e+00  4.064327e-01 5.044540e+00 0.000000e+00  3.795620e-01 5.180785e+00 0.000000e+00  3.508154e-01 5.307394e+00 0.000000e+00  3.202109e-01 5.423718e+00 0.000000e+00  2.877718e-01 5.529117e+00 0.000000e+00  2.535275e-01 5.622961e+00 0.000000e+00  2.175129e-01 5.704630e+00 0.000000e+00  1.797689e-01 5.773517e+00 0.000000e+00  1.403423e-01 5.829032e+00 0.000000e+00  9.928589e-02 5.870599e+00 0.000000e+00  5.665866e-02 5.897664e+00 0.000000e+00  1.252560e-02 5.909694e+00 0.000000e+00  -3.304216e-02 5.906180e+00 0.000000e+00  -7.996734e-02 5.886636e+00 0.000000e+00  -1.281666e-01 5.850608e+00 0.000000e+00  -1.775504e-01 5.797669e+00 0.000000e+00  -2.280233e-01 5.727424e+00 0.000000e+00  -2.794839e-01 5.639514e+00 0.000000e+00  -3.318248e-01 5.533614e+00 0.000000e+00  -3.849330e-01 5.409440e+00 0.000000e+00  -4.386895e-01 5.266746e+00 0.000000e+00  -4.929702e-01 5.105328e+00 0.000000e+00  -5.476454e-01 4.925028e+00 0.000000e+00  -6.025803e-01 4.725731e+00 0.000000e+00  -6.576350e-01 4.507371e+00 0.000000e+00  -7.126650e-01 4.269933e+00 0.000000e+00  -7.675211e-01 4.013450e+00 0.000000e+00  -8.220502e-01 3.738009e+00 0.000000e+00  -8.760947e-01 3.443751e+00 0.000000e+00  -9.294937e-01 3.130871e+00 0.000000e+00  -9.820828e-01 2.799621e+00 0.000000e+00  -1.033694e+00 2.450311e+00 0.000000e+00  -1.084159e+00 2.083310e+00 0.000000e+00  -1.133303e+00 1.699044e+00 0.000000e+00  -1.180953e+00 1.298001e+00 0.000000e+00  -1.226933e+00 8.807295e-01 0.000000e+00  -1.271066e+00 4.478389e-01 0.000000e+00  -1.313174e+00 0.000000e+00 0.000000e+00  6.524227e-01 0.000000e+00 0.000000e+00  6.722490e-01 1.738245e-01 0.000000e+00  6.908931e-01 3.526982e-01 0.000000e+00  7.082670e-01 5.362995e-01 0.000000e+00  7.242836e-01 7.242836e-01 0.000000e+00  7.388566e-01 9.162829e-01 0.000000e+00  7.519011e-01 1.111908e+00 0.000000e+00  7.633332e-01 1.310746e+00 0.000000e+00  7.730710e-01 1.512363e+00 0.000000e+00  7.810345e-01 1.716304e+00 0.000000e+00  7.871459e-01 1.922094e+00 0.000000e+00  7.913299e-01 2.129236e+00 0.000000e+00  7.935141e-01 2.337215e+00 0.000000e+00  7.936291e-01 2.545497e+00 0.000000e+00  7.916089e-01 2.753531e+00 0.000000e+00  7.873912e-01 2.960748e+00 0.000000e+00  7.809175e-01 3.166563e+00 0.000000e+00  7.721338e-01 3.370377e+00 0.000000e+00  7.609903e-01 3.571578e+00 0.000000e+00  7.474422e-01 3.769541e+00 0.000000e+00  7.314497e-01 3.963628e+00 0.000000e+00  7.129783e-01 4.153194e+00 0.000000e+00  6.919990e-01 4.337585e+00 0.000000e+00  6.684888e-01 4.516139e+00 0.000000e+00  6.424308e-01 4.688190e+00 0.000000e+00  6.138142e-01 4.853068e+00 0.000000e+00  5.826350e-01 5.010101e+00 0.000000e+00  5.488958e-01 5.158616e+00 0.000000e+00  5.126064e-01 5.297943e+00 0.000000e+00  4.737835e-01 5.427414e+00 0.000000e+00  4.324514e-01 5.546368e+00 0.000000e+00  3.886418e-01 5.654151e+00 0.000000e+00  3.423942e-01 5.750117e+00 0.000000e+00  2.937557e-01 5.833633e+00 0.000000e+00  2.427816e-01 5.904078e+00 0.000000e+00  1.895352e-01 5.960848e+00 0.000000e+00  1.340877e-01 6.003355e+00 0.000000e+00  7.651870e-02 6.031033e+00 0.000000e+00  1.691608e-02 6.043335e+00 0.000000e+00  -4.462411e-02 6.039741e+00 0.000000e+00  -1.079975e-01 6.019756e+00 0.000000e+00  -1.730916e-01 5.982913e+00 0.000000e+00  -2.397855e-01 5.928776e+00 0.000000e+00  -3.079502e-01 5.856943e+00 0.000000e+00  -3.774488e-01 5.767045e+00 0.000000e+00  -4.481363e-01 5.658750e+00 0.000000e+00  -5.198599e-01 5.531768e+00 0.000000e+00  -5.924593e-01 5.385847e+00 0.000000e+00  -6.657665e-01 5.220779e+00 0.000000e+00  -7.396064e-01 5.036401e+00 0.000000e+00  -8.137971e-01 4.832597e+00 0.000000e+00  -8.881496e-01 4.609300e+00 0.000000e+00  -9.624688e-01 4.366492e+00 0.000000e+00  -1.036553e+00 4.104209e+00 0.000000e+00  -1.110196e+00 3.822540e+00 0.000000e+00  -1.183184e+00 3.521627e+00 0.000000e+00  -1.255300e+00 3.201672e+00 0.000000e+00  -1.326323e+00 2.862931e+00 0.000000e+00  -1.396026e+00 2.505722e+00 0.000000e+00  -1.464179e+00 2.130421e+00 0.000000e+00  -1.530549e+00 1.737466e+00 0.000000e+00  -1.594901e+00 1.327354e+00 0.000000e+00  -1.656998e+00 9.006462e-01 0.000000e+00  -1.716601e+00 4.579662e-01 0.000000e+00  -1.773469e+00 0.000000e+00 0.000000e+00  8.253725e-01 0.000000e+00 0.000000e+00  8.504547e-01 1.773219e-01 0.000000e+00  8.740410e-01 3.597947e-01 0.000000e+00  8.960205e-01 5.470902e-01 0.000000e+00  9.162829e-01 7.388566e-01 0.000000e+00  9.347192e-01 9.347192e-01 0.000000e+00  9.512215e-01 1.134280e+00 0.000000e+00  9.656842e-01 1.337119e+00 0.000000e+00  9.780034e-01 1.542792e+00 0.000000e+00  9.880779e-01 1.750837e+00 0.000000e+00  9.958094e-01 1.960768e+00 0.000000e+00  1.001103e+00 2.172077e+00 0.000000e+00  1.003866e+00 2.384241e+00 0.000000e+00  1.004011e+00 2.596714e+00 0.000000e+00  1.001455e+00 2.808934e+00 0.000000e+00  9.961196e-01 3.020320e+00 0.000000e+00  9.879299e-01 3.230276e+00 0.000000e+00  9.768177e-01 3.438191e+00 0.000000e+00  9.627202e-01 3.643441e+00 0.000000e+00  9.455807e-01 3.845386e+00 0.000000e+00  9.253487e-01 4.043379e+00 0.000000e+00  9.019807e-01 4.236759e+00 0.000000e+00  8.754401e-01 4.424860e+00 0.000000e+00  8.456976e-01 4.607007e+00 0.000000e+00  8.127319e-01 4.782520e+00 0.000000e+00  7.765294e-01 4.950715e+00 0.000000e+00  7.370849e-01 5.110907e+00 0.000000e+00  6.944019e-01 5.262411e+00 0.000000e+00  6.484925e-01 5.404541e+00 0.000000e+00  5.993781e-01 5.536617e+00 0.000000e+00  5.470894e-01 5.657965e+00 0.000000e+00  4.916664e-01 5.767916e+00 0.000000e+00  4.331590e-01 5.865814e+00 0.000000e+00  3.716270e-01 5.951010e+00 0.000000e+00  3.071403e-01 6.022872e+00 0.000000e+00  2.397788e-01 6.080784e+00 0.000000e+00  1.696328e-01 6.124147e+00 0.000000e+00  9.680294e-02 6.152381e+00 0.000000e+00  2.140035e-02 6.164931e+00 0.000000e+00  -5.645345e-02 6.161265e+00 0.000000e+00  -1.366265e-01 6.140877e+00 0.000000e+00  -2.189762e-01 6.103293e+00 0.000000e+00  -3.033499e-01 6.048067e+00 0.000000e+00  -3.895843e-01 5.974788e+00 0.000000e+00  -4.775062e-01 5.883081e+00 0.000000e+00  -5.669322e-01 5.772608e+00 0.000000e+00  -6.576689e-01 5.643071e+00 0.000000e+00  -7.495135e-01 5.494214e+00 0.000000e+00  -8.422536e-01 5.325825e+00 0.000000e+00  -9.356677e-01 5.137737e+00 0.000000e+00  -1.029525e+00 4.929832e+00 0.000000e+00  -1.123588e+00 4.702042e+00 0.000000e+00  -1.217608e+00 4.454349e+00 0.000000e+00  -1.311332e+00 4.186789e+00 0.000000e+00  -1.404496e+00 3.899452e+00 0.000000e+00  -1.496833e+00 3.592485e+00 0.000000e+00  -1.588066e+00 3.266091e+00 0.000000e+00  -1.677916e+00 2.920535e+00 0.000000e+00  -1.766096e+00 2.556139e+00 0.000000e+00  -1.852316e+00 2.173287e+00 0.000000e+00  -1.936280e+00 1.772425e+00 0.000000e+00  -2.017692e+00 1.354061e+00 0.000000e+00  -2.096250e+00 9.187678e-01 0.000000e+00  -2.171652e+00 4.671808e-01 0.000000e+00  -2.243595e+00 0.000000e+00 0.000000e+00  1.001588e+00 0.000000e+00 0.000000e+00  1.032025e+00 1.804525e-01 0.000000e+00  1.060647e+00 3.661469e-01 0.000000e+00  1.087319e+00 5.567490e-01 0.000000e+00  1.111908e+00 7.519011e-01 0.000000e+00  1.134280e+00 9.512215e-01 0.000000e+00  1.154306e+00 1.154306e+00 0.000000e+00  1.171856e+00 1.360725e+00 0.000000e+00  1.186805e+00 1.570030e+00 0.000000e+00  1.199031e+00 1.781748e+00 0.000000e+00  1.208413e+00 1.995385e+00 0.000000e+00  1.214836e+00 2.210425e+00 0.000000e+00  1.218189e+00 2.426335e+00 0.000000e+00  1.218366e+00 2.642559e+00 0.000000e+00  1.215264e+00 2.858525e+00 0.000000e+00  1.208789e+00 3.073643e+00 0.000000e+00  1.198851e+00 3.287306e+00 0.000000e+00  1.185366e+00 3.498892e+00 0.000000e+00  1.168259e+00 3.707765e+00 0.000000e+00  1.147460e+00 3.913276e+00 0.000000e+00  1.122909e+00 4.114764e+00 0.000000e+00  1.094552e+00 4.311559e+00 0.000000e+00  1.062345e+00 4.502981e+00 0.000000e+00  1.026252e+00 4.688343e+00 0.000000e+00  9.862486e-01 4.866955e+00 0.000000e+00  9.423169e-01 5.038120e+00 0.000000e+00  8.944511e-01 5.201140e+00 0.000000e+00  8.426554e-01 5.355318e+00 0.000000e+00  7.869444e-01 5.499957e+00 0.000000e+00  7.273442e-01 5.634366e+00 0.000000e+00  6.638919e-01 5.757856e+00 0.000000e+00  5.966362e-01 5.869748e+00 0.000000e+00  5.256376e-01 5.969374e+00 0.000000e+00  4.509687e-01 6.056074e+00 0.000000e+00  3.727142e-01 6.129206e+00 0.000000e+00  2.909711e-01 6.188140e+00 0.000000e+00  2.058491e-01 6.232268e+00 0.000000e+00  1.174702e-01 6.261001e+00 0.000000e+00  2.596929e-02 6.273772e+00 0.000000e+00  -6.850615e-02 6.270041e+00 0.000000e+00  -1.657959e-01 6.249294e+00 0.000000e+00  -2.657272e-01 6.211046e+00 0.000000e+00  -3.681145e-01 6.154845e+00 0.000000e+00  -4.727599e-01 6.080272e+00 0.000000e+00  -5.794529e-01 5.986946e+00 0.000000e+00  -6.879711e-01 5.874523e+00 0.000000e+00  -7.980800e-01 5.742699e+00 0.000000e+00  -9.095332e-01 5.591214e+00 0.000000e+00  -1.022073e+00 5.419852e+00 0.000000e+00  -1.135431e+00 5.228443e+00 0.000000e+00  -1.249327e+00 5.016868e+00 0.000000e+00  -1.363472e+00 4.785056e+00 0.000000e+00  -1.477565e+00 4.532990e+00 0.000000e+00  -1.591299e+00 4.260706e+00 0.000000e+00  -1.704353e+00 3.968296e+00 0.000000e+00  -1.816404e+00 3.655909e+00 0.000000e+00  -1.927116e+00 3.323754e+00 0.000000e+00  -2.036148e+00 2.972097e+00 0.000000e+00  -2.143155e+00 2.601267e+00 0.000000e+00  -2.247782e+00 2.211656e+00 0.000000e+00  -2.349673e+00 1.803717e+00 0.000000e+00  -2.448465e+00 1.377967e+00 0.000000e+00  -2.543795e+00 9.349885e-01 0.000000e+00  -2.635296e+00 4.754288e-01 0.000000e+00  -2.722598e+00 0.000000e+00 0.000000e+00  1.180698e+00 0.000000e+00 0.000000e+00  1.216578e+00 1.831962e-01 0.000000e+00  1.250318e+00 3.717139e-01 0.000000e+00  1.281760e+00 5.652140e-01 0.000000e+00  1.310746e+00 7.633332e-01 0.000000e+00  1.337119e+00 9.656842e-01 0.000000e+00  1.360725e+00 1.171856e+00 0.000000e+00  1.381414e+00 1.381414e+00 0.000000e+00  1.399037e+00 1.593901e+00 0.000000e+00  1.413448e+00 1.808838e+00 0.000000e+00  1.424508e+00 2.025723e+00 0.000000e+00  1.432080e+00 2.244033e+00 0.000000e+00  1.436033e+00 2.463226e+00 0.000000e+00  1.436241e+00 2.682737e+00 0.000000e+00  1.432585e+00 2.901987e+00 0.000000e+00  1.424952e+00 3.120376e+00 0.000000e+00  1.413237e+00 3.337287e+00 0.000000e+00  1.397341e+00 3.552091e+00 0.000000e+00  1.377174e+00 3.764139e+00 0.000000e+00  1.352656e+00 3.972775e+00 0.000000e+00  1.323714e+00 4.177326e+00 0.000000e+00  1.290286e+00 4.377113e+00 0.000000e+00  1.252320e+00 4.571445e+00 0.000000e+00  1.209773e+00 4.759626e+00 0.000000e+00  1.162615e+00 4.940954e+00 0.000000e+00  1.110828e+00 5.114721e+00 0.000000e+00  1.054402e+00 5.280220e+00 0.000000e+00  9.933440e-01 5.436742e+00 0.000000e+00  9.276705e-01 5.583580e+00 0.000000e+00  8.574122e-01 5.720032e+00 0.000000e+00  7.826130e-01 5.845400e+00 0.000000e+00  7.033302e-01 5.958994e+00 0.000000e+00  6.196352e-01 6.060134e+00 0.000000e+00  5.316136e-01 6.148153e+00 0.000000e+00  4.393651e-01 6.222396e+00 0.000000e+00  3.430043e-01 6.282226e+00 0.000000e+00  2.426602e-01 6.327025e+00 0.000000e+00  1.384769e-01 6.356195e+00 0.000000e+00  3.061328e-02 6.369161e