<?xml version="1.0"?>
<VTKFile type="UnstructuredGrid"  version="0.1"  >
<UnstructuredGrid>
<Piece  NumberOfPoints="65" NumberOfCells="96">
<Points>
<DataArray  type="Float32"  NumberOfComponents="3"  format="ascii">0 0 0  1 0 0  1 1 0  0 1 0  -1 1 0  -1 0 0  -1 -1 0  0 -1 0  0.5 0.5 0  0 0.5 0  0.5 0 0  0.5 1 0  1 0.5 0  -0.5 0.5 0  -0.5 0 0  -1 0.5 0  -0.5 1 0  -0.5 -0.5 0  0 -0.5 0  -0.5 -1 0  -1 -0.5 0  0.25 0.25 0  0.25 0 0  0 0.25 0  0.5 0.25 0  0.75 0 0  0.75 0.25 0  0.25 0.5 0  0 0.75 0  0.25 0.75 0  0.75 0.5 0  1 0.25 0  0.75 0.75 0  1 0.75 0  0.75 1 0  0.5 0.75 0  0.25 1 0  -0.25 0.25 0  -0.25 0 0  -0.25 0.5 0  -0.25 0.75 0  -0.5 0.25 0  -0.75 0 0  -0.75 0.25 0  -0.5 0.75 0  -0.25 1 0  -0.75 0.75 0  -0.75 1 0  -1 0.75 0  -0.75 0.5 0  -1 0.25 0  -0.25 -0.25 0  0 -0.25 0  -0.5 -0.25 0  -0.75 -0.25 0  -0.25 -0.5 0  0 -0.75 0  -0.25 -0.75 0  -0.75 -0.5 0  -1 -0.25 0  -0.75 -0.75 0  -1 -0.75 0  -0.75 -1 0  -0.5 -0.75 0  -0.25 -1 0  </DataArray>
</Points>
<Cells>
<DataArray  type="UInt32"  Name="connectivity"  format="ascii">0 22 23  9 21 23  10 21 22  21 22 23  1 25 26  8 24 26  10 24 25  24 25 26  3 28 29  8 27 29  9 27 28  27 28 29  8 24 27  9 21 27  10 21 24  21 24 27  1 26 31  8 26 30  12 30 31  26 30 31  2 33 34  11 32 34  12 32 33  32 33 34  3 29 36  8 29 35  11 35 36  29 35 36  8 30 35  11 32 35  12 30 32  30 32 35  0 23 38  9 23 37  14 37 38  23 37 38  3 28 40  9 28 39  13 39 40  28 39 40  5 42 43  13 41 43  14 41 42  41 42 43  9 37 39  13 39 41  14 37 41  37 39 41  3 40 45  13 40 44  16 44 45  40 44 45  4 47 48  15 46 48  16 46 47  46 47 48  5 43 50  13 43 49  15 49 50  43 49 50  13 44 49  15 46 49  16 44 46  44 46 49  0 38 52  14 38 51  18 51 52  38 51 52  5 42 54  14 42 53  17 53 54  42 53 54  7 56 57  17 55 57  18 55 56  55 56 57  14 51 53  17 53 55  18 51 55  51 53 55  5 54 59  17 54 58  20 58 59  54 58 59  6 61 62  19 60 62  20 60 61  60 61 62  7 57 64  17 57 63  19 63 64  57 63 64  17 58 63  19 60 63  20 58 60  58 60 63  </DataArray>
<DataArray  type="UInt32"  Name="offsets"  format="ascii">3 6 9 12 15 18 21 24 27 30 33 36 39 42 45 48 51 54 57 60 63 66 69 72 75 78 81 84 87 90 93 96 99 102 105 108 111 114 117 120 123 126 129 132 135 138 141 144 147 150 153 156 159 162 165 168 171 174 177 180 183 186 189 192 195 198 201 204 207 210 213 216 219 222 225 228 231 234 237 240 243 246 249 252 255 258 261 264 267 270 273 276 279 282 285 288 </DataArray>
<DataArray  type="UInt8"  Name="types"  format="ascii">5 5 5 5 5 5 5 5 5 5 5 5 5 5 5 5 5 5 5 5 5 5 5 5 5 5 5 5 5 5 5 5 5 5 5 5 5 5 5 5 5 5 5 5 5 5 5 5 5 5 5 5 5 5 5 5 5 5 5 5 5 5 5 5 5 5 5 5 5 5 5 5 5 5 5 5 5 5 5 5 5 5 5 5 5 5 5 5 5 5 5 5 5 5 5 5 </DataArray>
</Cells>
<PointData  Vectors="u"> 
<DataArray  type="Float32"  Name="u"  NumberOfComponents="3" format="ascii">-3.519288e+97 0.000000e+00 0.000000e+00  0.000000e+00 0.000000e+00 0.000000e+00  0.000000e+00 0.000000e+00 0.000000e+00  0.000000e+00 1.265388e+95 0.000000e+00  0.000000e+00 0.000000e+00 0.000000e+00  -8.369026e+95 0.000000e+00 0.000000e+00  0.000000e+00 0.000000e+00 0.000000e+00  0.000000e+00 0.000000e+00 0.000000e+00  -4.004959e+96 2.686058e+96 0.000000e+00  1.188472e+97 1.908853e+96 0.000000e+00  0.000000e+00 -3.323552e+96 0.000000e+00  0.000000e+00 6.514446e+94 0.000000e+00  4.878688e+95 0.000000e+00 0.000000e+00  -3.694430e+96 -6.696972e+96 0.000000e+00  5.078327e+96 8.275576e+96 0.000000e+00  -5.486299e+95 0.000000e+00 0.000000e+00  0.000000e+00 1.171056e+96 0.000000e+00  9.571524e+96 -8.092663e+96 0.000000e+00  -4.427790e+96 0.000000e+00 0.000000e+00  0.000000e+00 6.288963e+96 0.000000e+00  -8.002258e+96 0.000000e+00 0.000000e+00  9.947349e+96 -1.105273e+97 0.000000e+00  0.000000e+00 1.090900e+97 0.000000e+00  -8.921960e+96 -1.893636e+96 0.000000e+00  -9.356954e+95 4.308798e+96 0.000000e+00  0.000000e+00 4.150912e+95 0.000000e+00  -2.220333e+96 7.638736e+95 0.000000e+00  -7.128122e+96 1.885977e+96 0.000000e+00  -3.701323e+96 -4.103553e+95 0.000000e+00  2.433055e+94 1.531153e+96 0.000000e+00  4.309105e+96 -4.109240e+96 0.000000e+00  7.161814e+94 0.000000e+00 0.000000e+00  -2.417161e+96 1.971213e+96 0.000000e+00  -3.216383e+96 0.000000e+00 0.000000e+00  0.000000e+00 2.122495e+96 0.000000e+00  5.921272e+96 -3.515761e+96 0.000000e+00  0.000000e+00 -1.377106e+95 0.000000e+00  1.144904e+97 9.269702e+96 0.000000e+00  3.302583e+96 -1.722797e+97 0.000000e+00  -8.912912e+96 3.237370e+95 0.000000e+00  8.359922e+95 -3.122979e+96 0.000000e+00  -4.242389e+96 -3.447347e+95 0.000000e+00  -1.633645e+96 -1.639065e+96 0.000000e+00  -1.649400e+96 -3.557526e+96 0.000000e+00  6.627158e+96 4.069309e+96 0.000000e+00  0.000000e+00 9.605696e+95 0.000000e+00  -3.481586e+96 -7.242536e+95 0.000000e+00  0.000000e+00 -4.914701e+96 0.000000e+00  -3.445568e+96 0.000000e+00 0.000000e+00  5.782638e+96 5.787905e+96 0.000000e+00  1.092027e+96 0.000000e+00 0.000000e+00  -1.679395e+96 6.454487e+96 0.000000e+00  2.258845e+97 0.000000e+00 0.000000e+00  -1.078414e+97 -1.464094e+96 0.000000e+00  5.138577e+96 -2.515344e+96 0.000000e+00  -7.205688e+96 6.248740e+96 0.000000e+00  -6.308016e+93 0.000000e+00 0.000000e+00  6.429758e+96 -5.091218e+96 0.000000e+00  6.724681e+95 5.206544e+96 0.000000e+00  1.856955e+96 0.000000e+00 0.000000e+00  -5.502541e+96 2.892889e+96 0.000000e+00  1.136249e+97 0.000000e+00 0.000000e+00  0.000000e+00 -1.111361e+97 0.000000e+00  -3.602733e+96 2.175867e+96 0.000000e+00  0.000000e+00 -7.491602e+95 0.000000e+00  </DataArray> 
</PointData> 
</Piece>
</UnstructuredGrid>
</VTKFile>