<?xml version="1.0"?>
<VTKFile type="UnstructuredGrid"  version="0.1"  >
<UnstructuredGrid>
<Piece  NumberOfPoints="12545" NumberOfCells="24576">
<Points>
<DataArray  type="Float32"  NumberOfComponents="3"  format="ascii">0 0 0  1 0 0  1 1 0  0 1 0  -1 1 0  -1 0 0  -1 -1 0  0 -1 0  0.5 0.5 0  0 0.5 0  0.5 0 0  0.5 1 0  1 0.5 0  -0.5 0.5 0  -0.5 0 0  -1 0.5 0  -0.5 1 0  -0.5 -0.5 0  0 -0.5 0  -0.5 -1 0  -1 -0.5 0  0.25 0.25 0  0.25 0 0  0 0.25 0  0.5 0.25 0  0.75 0 0  0.75 0.25 0  0.25 0.5 0  0 0.75 0  0.25 0.75 0  0.75 0.5 0  1 0.25 0  0.75 0.75 0  1 0.75 0  0.75 1 0  0.5 0.75 0  0.25 1 0  -0.25 0.25 0  -0.25 0 0  -0.25 0.5 0  -0.25 0.75 0  -0.5 0.25 0  -0.75 0 0  -0.75 0.25 0  -0.5 0.75 0  -0.25 1 0  -0.75 0.75 0  -0.75 1 0  -1 0.75 0  -0.75 0.5 0  -1 0.25 0  -0.25 -0.25 0  0 -0.25 0  -0.5 -0.25 0  -0.75 -0.25 0  -0.25 -0.5 0  0 -0.75 0  -0.25 -0.75 0  -0.75 -0.5 0  -1 -0.25 0  -0.75 -0.75 0  -1 -0.75 0  -0.75 -1 0  -0.5 -0.75 0  -0.25 -1 0  0.125 0.125 0  0 0.125 0  0.125 0 0  0.125 0.25 0  0 0.375 0  0.125 0.375 0  0.25 0.125 0  0.375 0 0  0.375 0.125 0  0.75 0.125 0  0.875 0.125 0  0.875 0 0  0.625 0.25 0  0.625 0.375 0  0.5 0.375 0  0.625 0.125 0  0.625 0 0  0.5 0.125 0  0.125 0.75 0  0.125 0.875 0  0 0.875 0  0.25 0.625 0  0.375 0.625 0  0.375 0.5 0  0.125 0.625 0  0 0.625 0  0.125 0.5 0  0.375 0.375 0  0.25 0.375 0  0.375 0.25 0  0.875 0.25 0  1 0.125 0  0.75 0.375 0  0.625 0.5 0  0.875 0.375 0  1 0.375 0  0.875 0.5 0  0.875 0.875 0  0.875 1 0  1 0.875 0  0.75 0.875 0  0.625 1 0  0.625 0.875 0  0.875 0.75 0  1 0.625 0  0.875 0.625 0  0.25 0.875 0  0.125 1 0  0.375 0.75 0  0.5 0.625 0  0.375 0.875 0  0.375 1 0  0.5 0.875 0  0.625 0.625 0  0.625 0.75 0  0.75 0.625 0  -0.125 0.125 0  -0.125 0 0  -0.125 0.25 0  -0.125 0.375 0  -0.25 0.125 0  -0.375 0 0  -0.375 0.125 0  -0.125 0.75 0  -0.125 0.875 0  -0.125 0.625 0  -0.125 0.5 0  -0.25 0.625 0  -0.375 0.625 0  -0.375 0.5 0  -0.75 0.125 0  -0.875 0.125 0  -0.875 0 0  -0.625 0.25 0  -0.625 0.375 0  -0.5 0.375 0  -0.625 0.125 0  -0.625 0 0  -0.5 0.125 0  -0.25 0.375 0  -0.375 0.375 0  -0.375 0.25 0  -0.25 0.875 0  -0.125 1 0  -0.375 0.75 0  -0.5 0.625 0  -0.375 0.875 0  -0.375 1 0  -0.5 0.875 0  -0.875 0.875 0  -1 0.875 0  -0.875 1 0  -0.875 0.75 0  -1 0.625 0  -0.875 0.625 0  -0.75 0.875 0  -0.625 1 0  -0.625 0.875 0  -0.875 0.25 0  -1 0.125 0  -0.75 0.375 0  -0.625 0.5 0  -0.875 0.375 0  -1 0.375 0  -0.875 0.5 0  -0.625 0.625 0  -0.75 0.625 0  -0.625 0.75 0  -0.125 -0.125 0  0 -0.125 0  -0.25 -0.125 0  -0.375 -0.125 0  -0.125 -0.25 0  0 -0.375 0  -0.125 -0.375 0  -0.75 -0.125 0  -0.875 -0.125 0  -0.625 -0.125 0  -0.5 -0.125 0  -0.625 -0.25 0  -0.625 -0.375 0  -0.5 -0.375 0  -0.125 -0.75 0  -0.125 -0.875 0  0 -0.875 0  -0.25 -0.625 0  -0.375 -0.625 0  -0.375 -0.5 0  -0.125 -0.625 0  0 -0.625 0  -0.125 -0.5 0  -0.375 -0.25 0  -0.375 -0.375 0  -0.25 -0.375 0  -0.875 -0.25 0  -1 -0.125 0  -0.75 -0.375 0  -0.625 -0.5 0  -0.875 -0.375 0  -1 -0.375 0  -0.875 -0.5 0  -0.875 -0.875 0  -0.875 -1 0  -1 -0.875 0  -0.75 -0.875 0  -0.625 -1 0  -0.625 -0.875 0  -0.875 -0.75 0  -1 -0.625 0  -0.875 -0.625 0  -0.25 -0.875 0  -0.125 -1 0  -0.375 -0.75 0  -0.5 -0.625 0  -0.375 -0.875 0  -0.375 -1 0  -0.5 -0.875 0  -0.625 -0.625 0  -0.625 -0.75 0  -0.75 -0.625 0  0.0625 0.0625 0  0.0625 0 0  0 0.0625 0  0.125 0.0625 0  0.1875 0 0  0.1875 0.0625 0  0.0625 0.125 0  0 0.1875 0  0.0625 0.1875 0  0.0625 0.375 0  0.0625 0.4375 0  0 0.4375 0  0.125 0.3125 0  0.1875 0.3125 0  0.1875 0.25 0  0.0625 0.3125 0  0 0.3125 0  0.0625 0.25 0  0.375 0.0625 0  0.4375 0.0625 0  0.4375 0 0  0.3125 0.125 0  0.3125 0.1875 0  0.25 0.1875 0  0.3125 0.0625 0  0.3125 0 0  0.25 0.0625 0  0.1875 0.1875 0  0.1875 0.125 0  0.125 0.1875 0  0.875 0.0625 0  0.9375 0 0  0.9375 0.0625 0  0.8125 0.0625 0  0.8125 0 0  0.75 0.0625 0  0.8125 0.125 0  0.8125 0.1875 0  0.75 0.1875 0  0.5625 0.375 0  0.5 0.4375 0  0.5625 0.4375 0  0.5625 0.3125 0  0.5 0.3125 0  0.5625 0.25 0  0.625 0.3125 0  0.6875 0.3125 0  0.6875 0.25 0  0.5625 0.0625 0  0.5 0.0625 0  0.5625 0 0  0.5625 0.125 0  0.5 0.1875 0  0.5625 0.1875 0  0.625 0.0625 0  0.6875 0 0  0.6875 0.0625 0  0.625 0.1875 0  0.6875 0.125 0  0.6875 0.1875 0  0.0625 0.875 0  0 0.9375 0  0.0625 0.9375 0  0.0625 0.8125 0  0 0.8125 0  0.0625 0.75 0  0.125 0.8125 0  0.1875 0.8125 0  0.1875 0.75 0  0.375 0.5625 0  0.4375 0.5 0  0.4375 0.5625 0  0.3125 0.5625 0  0.3125 0.5 0  0.25 0.5625 0  0.3125 0.625 0  0.3125 0.6875 0  0.25 0.6875 0  0.0625 0.5625 0  0.0625 0.5 0  0 0.5625 0  0.125 0.5625 0  0.1875 0.5 0  0.1875 0.5625 0  0.0625 0.625 0  0 0.6875 0  0.0625 0.6875 0  0.1875 0.625 0  0.125 0.6875 0  0.1875 0.6875 0  0.4375 0.4375 0  0.4375 0.375 0  0.4375 0.3125 0  0.375 0.4375 0  0.3125 0.4375 0  0.125 0.4375 0  0.1875 0.375 0  0.25 0.3125 0  0.1875 0.4375 0  0.25 0.4375 0  0.4375 0.125 0  0.375 0.1875 0  0.3125 0.25 0  0.4375 0.1875 0  0.4375 0.25 0  0.3125 0.3125 0  0.375 0.3125 0  0.3125 0.375 0  0.9375 0.125 0  1 0.0625 0  0.875 0.1875 0  0.8125 0.25 0  0.9375 0.1875 0  1 0.1875 0  0.9375 0.25 0  0.625 0.4375 0  0.5625 0.5 0  0.6875 0.375 0  0.75 0.3125 0  0.6875 0.4375 0  0.6875 0.5 0  0.75 0.4375 0  0.9375 0.4375 0  0.9375 0.5 0  1 0.4375 0  0.875 0.4375 0  0.8125 0.5 0  0.8125 0.4375 0  0.9375 0.375 0  1 0.3125 0  0.9375 0.3125 0  0.8125 0.3125 0  0.8125 0.375 0  0.875 0.3125 0  0.9375 0.9375 0  1 0.9375 0  0.9375 1 0  0.9375 0.875 0  1 0.8125 0  0.9375 0.8125 0  0.875 0.9375 0  0.8125 1 0  0.8125 0.9375 0  0.625 0.9375 0  0.5625 0.9375 0  0.5625 1 0  0.6875 0.875 0  0.6875 0.8125 0  0.75 0.8125 0  0.6875 0.9375 0  0.6875 1 0  0.75 0.9375 0  0.9375 0.625 0  0.9375 0.5625 0  1 0.5625 0  0.875 0.6875 0  0.8125 0.6875 0  0.8125 0.75 0  0.9375 0.6875 0  1 0.6875 0  0.9375 0.75 0  0.8125 0.8125 0  0.875 0.8125 0  0.8125 0.875 0  0.125 0.9375 0  0.0625 1 0  0.1875 0.875 0  0.25 0.8125 0  0.1875 0.9375 0  0.1875 1 0  0.25 0.9375 0  0.4375 0.625 0  0.5 0.5625 0  0.375 0.6875 0  0.3125 0.75 0  0.4375 0.6875 0  0.5 0.6875 0  0.4375 0.75 0  0.4375 0.9375 0  0.5 0.9375 0  0.4375 1 0  0.4375 0.875 0  0.5 0.8125 0  0.4375 0.8125 0  0.375 0.9375 0  0.3125 1 0  0.3125 0.9375 0  0.3125 0.8125 0  0.375 0.8125 0  0.3125 0.875 0  0.5625 0.5625 0  0.625 0.5625 0  0.6875 0.5625 0  0.5625 0.625 0  0.5625 0.6875 0  0.5625 0.875 0  0.625 0.8125 0  0.6875 0.75 0  0.5625 0.8125 0  0.5625 0.75 0  0.875 0.5625 0  0.8125 0.5625 0  0.75 0.5625 0  0.8125 0.625 0  0.75 0.6875 0  0.6875 0.625 0  0.6875 0.6875 0  0.625 0.6875 0  -0.0625 0.0625 0  -0.0625 0 0  -0.0625 0.125 0  -0.0625 0.1875 0  -0.125 0.0625 0  -0.1875 0 0  -0.1875 0.0625 0  -0.0625 0.375 0  -0.0625 0.4375 0  -0.0625 0.3125 0  -0.0625 0.25 0  -0.125 0.3125 0  -0.1875 0.3125 0  -0.1875 0.25 0  -0.375 0.0625 0  -0.4375 0.0625 0  -0.4375 0 0  -0.3125 0.125 0  -0.3125 0.1875 0  -0.25 0.1875 0  -0.3125 0.0625 0  -0.3125 0 0  -0.25 0.0625 0  -0.125 0.1875 0  -0.1875 0.1875 0  -0.1875 0.125 0  -0.0625 0.875 0  -0.0625 0.9375 0  -0.0625 0.8125 0  -0.0625 0.75 0  -0.125 0.8125 0  -0.1875 0.8125 0  -0.1875 0.75 0  -0.0625 0.5625 0  -0.0625 0.5 0  -0.0625 0.625 0  -0.0625 0.6875 0  -0.125 0.5625 0  -0.1875 0.5 0  -0.1875 0.5625 0  -0.375 0.5625 0  -0.4375 0.5 0  -0.4375 0.5625 0  -0.3125 0.5625 0  -0.3125 0.5 0  -0.25 0.5625 0  -0.3125 0.625 0  -0.3125 0.6875 0  -0.25 0.6875 0  -0.125 0.6875 0  -0.1875 0.625 0  -0.1875 0.6875 0  -0.875 0.0625 0  -0.9375 0 0  -0.9375 0.0625 0  -0.8125 0.0625 0  -0.8125 0 0  -0.75 0.0625 0  -0.8125 0.125 0  -0.8125 0.1875 0  -0.75 0.1875 0  -0.5625 0.375 0  -0.5 0.4375 0  -0.5625 0.4375 0  -0.5625 0.3125 0  -0.5 0.3125 0  -0.5625 0.25 0  -0.625 0.3125 0  -0.6875 0.3125 0  -0.6875 0.25 0  -0.5625 0.0625 0  -0.5 0.0625 0  -0.5625 0 0  -0.5625 0.125 0  -0.5 0.1875 0  -0.5625 0.1875 0  -0.625 0.0625 0  -0.6875 0 0  -0.6875 0.0625 0  -0.625 0.1875 0  -0.6875 0.125 0  -0.6875 0.1875 0  -0.125 0.4375 0  -0.1875 0.375 0  -0.25 0.3125 0  -0.1875 0.4375 0  -0.25 0.4375 0  -0.4375 0.4375 0  -0.375 0.4375 0  -0.3125 0.4375 0  -0.4375 0.375 0  -0.4375 0.3125 0  -0.4375 0.125 0  -0.375 0.1875 0  -0.3125 0.25 0  -0.4375 0.1875 0  -0.4375 0.25 0  -0.3125 0.3125 0  -0.3125 0.375 0  -0.375 0.3125 0  -0.125 0.9375 0  -0.0625 1 0  -0.1875 0.875 0  -0.25 0.8125 0  -0.1875 0.9375 0  -0.1875 1 0  -0.25 0.9375 0  -0.4375 0.625 0  -0.5 0.5625 0  -0.375 0.6875 0  -0.3125 0.75 0  -0.4375 0.6875 0  -0.5 0.6875 0  -0.4375 0.75 0  -0.4375 0.9375 0  -0.5 0.9375 0  -0.4375 1 0  -0.4375 0.875 0  -0.5 0.8125 0  -0.4375 0.8125 0  -0.375 0.9375 0  -0.3125 1 0  -0.3125 0.9375 0  -0.3125 0.8125 0  -0.375 0.8125 0  -0.3125 0.875 0  -0.9375 0.9375 0  -0.9375 1 0  -1 0.9375 0  -0.875 0.9375 0  -0.8125 1 0  -0.8125 0.9375 0  -0.9375 0.875 0  -1 0.8125 0  -0.9375 0.8125 0  -0.9375 0.625 0  -0.9375 0.5625 0  -1 0.5625 0  -0.875 0.6875 0  -0.8125 0.6875 0  -0.8125 0.75 0  -0.9375 0.6875 0  -1 0.6875 0  -0.9375 0.75 0  -0.625 0.9375 0  -0.5625 0.9375 0  -0.5625 1 0  -0.6875 0.875 0  -0.6875 0.8125 0  -0.75 0.8125 0  -0.6875 0.9375 0  -0.6875 1 0  -0.75 0.9375 0  -0.8125 0.8125 0  -0.8125 0.875 0  -0.875 0.8125 0  -0.9375 0.125 0  -1 0.0625 0  -0.875 0.1875 0  -0.8125 0.25 0  -0.9375 0.1875 0  -1 0.1875 0  -0.9375 0.25 0  -0.625 0.4375 0  -0.5625 0.5 0  -0.6875 0.375 0  -0.75 0.3125 0  -0.6875 0.4375 0  -0.6875 0.5 0  -0.75 0.4375 0  -0.9375 0.4375 0  -0.9375 0.5 0  -1 0.4375 0  -0.875 0.4375 0  -0.8125 0.5 0  -0.8125 0.4375 0  -0.9375 0.375 0  -1 0.3125 0  -0.9375 0.3125 0  -0.8125 0.3125 0  -0.8125 0.375 0  -0.875 0.3125 0  -0.5625 0.5625 0  -0.5625 0.625 0  -0.5625 0.6875 0  -0.625 0.5625 0  -0.6875 0.5625 0  -0.875 0.5625 0  -0.8125 0.625 0  -0.75 0.6875 0  -0.8125 0.5625 0  -0.75 0.5625 0  -0.5625 0.875 0  -0.5625 0.8125 0  -0.5625 0.75 0  -0.625 0.8125 0  -0.6875 0.75 0  -0.625 0.6875 0  -0.6875 0.6875 0  -0.6875 0.625 0  -0.0625 -0.0625 0  0 -0.0625 0  -0.125 -0.0625 0  -0.1875 -0.0625 0  -0.0625 -0.125 0  0 -0.1875 0  -0.0625 -0.1875 0  -0.375 -0.0625 0  -0.4375 -0.0625 0  -0.3125 -0.0625 0  -0.25 -0.0625 0  -0.3125 -0.125 0  -0.3125 -0.1875 0  -0.25 -0.1875 
[...]
<PointData  Vectors="u"> 
<DataArray  type="Float32"  Name="u"  NumberOfComponents="3" format="ascii">0.000000e+00 0.000000e+00 0.000000e+00  0.000000e+00 0.000000e+00 0.000000e+00  0.000000e+00 0.000000e+00 0.000000e+00  0.000000e+00 1.519914e+00 0.000000e+00  0.000000e+00 0.000000e+00 0.000000e+00  -5.373062e-01 0.000000e+00 0.000000e+00  0.000000e+00 0.000000e+00 0.000000e+00  0.000000e+00 0.000000e+00 0.000000e+00  -3.344441e-01 1.400827e+00 0.000000e+00  -1.278627e+00 1.466432e+00 0.000000e+00  0.000000e+00 3.181939e+00 0.000000e+00  0.000000e+00 1.067935e+00 0.000000e+00  -6.764637e-02 0.000000e+00 0.000000e+00  -3.648029e-01 1.074023e+00 0.000000e+00  -2.839379e-01 1.590969e+00 0.000000e+00  -3.446158e-01 0.000000e+00 0.000000e+00  0.000000e+00 1.007611e+00 0.000000e+00  -6.992471e-01 3.268035e-01 0.000000e+00  -2.557254e+00 0.000000e+00 0.000000e+00  0.000000e+00 6.032433e-02 0.000000e+00  -4.122621e-01 0.000000e+00 0.000000e+00  -4.714352e-01 1.317842e+00 0.000000e+00  0.000000e+00 5.984833e-01 0.000000e+00  6.578297e-02 8.149019e-01 0.000000e+00  -1.031407e+00 2.951393e+00 0.000000e+00  0.000000e+00 7.454906e-01 0.000000e+00  -6.282939e-02 6.714972e-01 0.000000e+00  -1.623451e+00 2.194057e+00 0.000000e+00  -2.036749e-01 1.610897e+00 0.000000e+00  -1.320616e-01 1.481962e+00 0.000000e+00  -8.872978e-02 6.314078e-01 0.000000e+00  -4.851530e-02 0.000000e+00 0.000000e+00  -5.832135e-02 5.897728e-01 0.000000e+00  -4.662875e-02 0.000000e+00 0.000000e+00  0.000000e+00 5.714084e-01 0.000000e+00  -8.960863e-02 1.112410e+00 0.000000e+00  0.000000e+00 1.409041e+00 0.000000e+00  3.973745e-02 8.004821e-01 0.000000e+00  6.895271e-02 2.992416e-01 0.000000e+00  -6.539618e-01 1.200710e+00 0.000000e+00  -1.924936e-01 1.433836e+00 0.000000e+00  -1.377879e-01 1.267570e+00 0.000000e+00  -5.630654e-01 3.727453e-01 0.000000e+00  -4.871721e-01 4.776648e-01 0.000000e+00  -1.881463e-01 1.032372e+00 0.000000e+00  0.000000e+00 1.368879e+00 0.000000e+00  -1.831466e-01 5.318835e-01 0.000000e+00  0.000000e+00 5.273316e-01 0.000000e+00  -1.807170e-01 0.000000e+00 0.000000e+00  -3.516726e-01 5.290014e-01 0.000000e+00  -4.714893e-01 0.000000e+00 0.000000e+00  -4.316978e-01 5.173603e-01 0.000000e+00  1.315659e-01 0.000000e+00 0.000000e+00  -1.169194e+00 1.683823e+00 0.000000e+00  -5.500015e-01 1.938323e-01 0.000000e+00  -2.277413e+00 9.933465e-01 0.000000e+00  -4.073498e-01 0.000000e+00 0.000000e+00  -3.245552e-01 4.812620e-02 0.000000e+00  -4.404024e-01 1.024064e-01 0.000000e+00  -5.200046e-01 0.000000e+00 0.000000e+00  -2.414680e-01 5.788926e-02 0.000000e+00  -2.273458e-01 0.000000e+00 0.000000e+00  0.000000e+00 4.407678e-02 0.000000e+00  -2.777549e-01 8.003849e-02 0.000000e+00  0.000000e+00 4.016245e-02 0.000000e+00  2.754507e-02 6.449532e-01 0.000000e+00  3.912637e-02 5.714026e-01 0.000000e+00  0.000000e+00 5.545538e-01 0.000000e+00  -1.727812e-03 8.417721e-01 0.000000e+00  -5.102637e-01 1.104224e+00 0.000000e+00  -8.590086e-01 1.395924e+00 0.000000e+00  -1.360544e-02 7.203310e-01 0.000000e+00  0.000000e+00 1.733273e+00 0.000000e+00  -4.231087e-01 1.981212e+00 0.000000e+00  -3.453585e-02 7.014839e-01 0.000000e+00  -2.859638e-02 3.569783e-01 0.000000e+00  0.000000e+00 3.674282e-01 0.000000e+00  -3.556334e-01 1.649761e+00 0.000000e+00  -1.485414e-01 1.026933e+00 0.000000e+00  -9.565208e-01 2.285202e+00 0.000000e+00  -3.018004e-01 2.240563e+00 0.000000e+00  0.000000e+00 2.459103e+00 0.000000e+00  -5.979648e-01 3.166993e+00 0.000000e+00  -1.644445e-01 1.583356e+00 0.000000e+00  -8.479921e-02 1.518275e+00 0.000000e+00  -9.795841e-02 1.541937e+00 0.000000e+00  -6.758608e-01 1.752582e+00 0.000000e+00  -2.079435e-01 1.423602e+00 0.000000e+00  -1.150945e+00 2.135585e+00 0.000000e+00  -9.967581e-01 1.798259e+00 0.000000e+00  -9.829709e-01 1.657916e+00 0.000000e+00  -1.570713e+00 1.828102e+00 0.000000e+00  -1.543528e+00 2.647547e+00 0.000000e+00  -1.372248e+00 2.030762e+00 0.000000e+00  -1.066679e+00 2.478065e+00 0.000000e+00  -5.199800e-02 3.405337e-01 0.000000e+00  -2.646993e-02 0.000000e+00 0.000000e+00  -8.121510e-02 6.478181e-01 0.000000e+00  -1.209518e-01 9.407602e-01 0.000000e+00  -6.743384e-02 3.278625e-01 0.000000e+00  -6.296042e-02 0.000000e+00 0.000000e+00  -7.258614e-02 3.178001e-01 0.000000e+00  -2.640252e-02 2.924456e-01 0.000000e+00  0.000000e+00 2.902304e-01 0.000000e+00  -2.495814e-02 0.000000e+00 0.000000e+00  -3.065122e-02 5.761613e-01 0.000000e+00  0.000000e+00 8.340123e-01 0.000000e+00  -3.731583e-02 8.417982e-01 0.000000e+00  -4.954934e-02 2.986998e-01 0.000000e+00  -6.177449e-02 0.000000e+00 0.000000e+00  -6.603890e-02 3.077793e-01 0.000000e+00  -6.840814e-02 1.427217e+00 0.000000e+00  0.000000e+00 1.497021e+00 0.000000e+00  -1.061856e-01 1.320377e+00 0.000000e+00  -1.330411e-01 1.168225e+00 0.000000e+00  -5.534741e-02 1.277448e+00 0.000000e+00  0.000000e+00 1.262913e+00 0.000000e+00  -4.561243e-02 1.079073e+00 0.000000e+00  -1.030482e-01 9.006363e-01 0.000000e+00  -7.245812e-02 8.646616e-01 0.000000e+00  -7.940143e-02 6.098955e-01 0.000000e+00  5.531689e-02 5.423219e-01 0.000000e+00  5.434533e-02 2.772769e-01 0.000000e+00  5.693620e-02 7.920115e-01 0.000000e+00  -3.814533e-01 9.869290e-01 0.000000e+00  7.405327e-02 5.411540e-01 0.000000e+00  -6.687828e-03 8.666363e-01 0.000000e+00  9.752127e-02 9.463117e-01 0.000000e+00  -1.961594e-01 1.558661e+00 0.000000e+00  -9.970149e-02 1.495802e+00 0.000000e+00  -7.436991e-01 1.514768e+00 0.000000e+00  -9.561946e-01 1.256359e+00 0.000000e+00  -4.589821e-01 1.422761e+00 0.000000e+00  -2.929449e-01 1.295516e+00 0.000000e+00  -4.345801e-01 1.207839e+00 0.000000e+00  -5.344178e-01 4.280838e-01 0.000000e+00  -5.186662e-01 2.144747e-01 0.000000e+00  -5.436578e-01 1.837141e-01 0.000000e+00  -4.130219e-01 9.026980e-01 0.000000e+00  -4.303447e-01 7.903944e-01 0.000000e+00  -3.064052e-01 1.126301e+00 0.000000e+00  -4.097894e-01 1.098546e+00 0.000000e+00  -5.264581e-01 1.229552e+00 0.000000e+00  -9.607293e-02 1.431821e+00 0.000000e+00  -2.991505e-01 9.881864e-01 0.000000e+00  -2.406575e-01 1.120608e+00 0.000000e+00  2.925379e-02 1.058300e+00 0.000000e+00  -9.743399e-02 1.384964e+00 0.000000e+00  0.000000e+00 1.475671e+00 0.000000e+00  -1.895503e-01 1.252648e+00 0.000000e+00  -2.797070e-01 1.056825e+00 0.000000e+00  -9.580729e-02 1.219983e+00 0.000000e+00  0.000000e+00 1.208862e+00 0.000000e+00  -9.471099e-02 1.014188e+00 0.000000e+00  -9.166003e-02 2.667157e-01 0.000000e+00  -9.137003e-02 0.000000e+00 0.000000e+00  0.000000e+00 2.662675e-01 0.000000e+00  -1.813616e-01 2.675423e-01 0.000000e+00  -2.659130e-01 0.000000e+00 0.000000e+00  -2.670501e-01 2.672454e-01 0.000000e+00  -9.245772e-02 5.287260e-01 0.000000e+00  0.000000e+00 7.770673e-01 0.000000e+00  -9.356601e-02 7.803871e-01 0.000000e+00  -4.754500e-01 2.373655e-01 0.000000e+00  -5.135358e-01 0.000000e+00 0.000000e+00  -4.253709e-01 5.110128e-01 0.000000e+00  -3.591173e-01 7.995625e-01 0.000000e+00  -4.169922e-01 2.538872e-01 0.000000e+00  -4.141474e-01 0.000000e+00 0.000000e+00  -3.464685e-01 2.635008e-01 0.000000e+00  -2.747619e-01 7.980499e-01 0.000000e+00  -2.702202e-01 5.337088e-01 0.000000e+00  -1.856482e-01 7.889003e-01 0.000000e+00  8.286196e-02 1.026313e-01 0.000000e+00  7.825275e-02 0.000000e+00 0.000000e+00  6.044784e-02 1.791770e-01 0.000000e+00  -3.255874e-01 1.034900e+00 0.000000e+00  5.520839e-02 4.976051e-02 0.000000e+00  -1.020527e+00 0.000000e+00 0.000000e+00  -1.240462e+00 4.089954e-01 0.000000e+00  -5.689537e-01 2.734001e-01 0.000000e+00  -5.472626e-01 1.425036e-01 0.000000e+00  -7.115898e-01 1.142018e+00 0.000000e+00  -6.940377e-01 1.735172e+00 0.000000e+00  -7.686553e-01 7.470631e-01 0.000000e+00  -5.788861e-01 2.365382e-01 0.000000e+00  -1.262926e+00 1.158901e+00 0.000000e+00  -3.606039e-01 2.469569e-02 0.000000e+00  -1.845007e-01 2.247303e-02 0.000000e+00  -1.959168e-01 0.000000e+00 0.000000e+00  -1.134843e+00 3.298207e-01 0.000000e+00  -5.008884e-01 1.280862e-01 0.000000e+00  -1.585525e+00 9.277460e-01 0.000000e+00  -1.740457e+00 2.834908e-01 0.000000e+00  -1.965942e+00 0.000000e+00 0.000000e+00  -2.526907e+00 5.717427e-01 0.000000e+00  -1.037425e+00 1.419765e+00 0.000000e+00  -1.784186e+00 1.526939e+00 0.000000e+00  -1.671399e+00 1.042575e+00 0.000000e+00  -5.274480e-01 1.031682e-01 0.000000e+00  -5.400057e-01 0.000000e+00 0.000000e+00  -5.065860e-01 1.368053e-01 0.000000e+00  -4.800691e-01 1.411976e-01 0.000000e+00  -4.844261e-01 7.397535e-02 0.000000e+00  -4.771079e-01 0.000000e+00 0.000000e+00  -4.190546e-01 5.429928e-02 0.000000e+00  -1.180625e-01 2.572992e-02 0.000000e+00  0.000000e+00 2.396297e-02 0.000000e+00  -1.163282e-01 0.000000e+00 0.000000e+00  -1.231089e-01 4.743528e-02 0.000000e+00  0.000000e+00 5.694499e-02 0.000000e+00  -1.308818e-01 6.141113e-02 0.000000e+00  -2.309110e-01 3.115745e-02 0.000000e+00  -3.276875e-01 0.000000e+00 0.000000e+00  -3.330890e-01 4.053395e-02 0.000000e+00  -1.658421e-01 4.225357e-02 0.000000e+00  0.000000e+00 2.135077e-02 0.000000e+00  -2.957359e-01 6.772884e-02 0.000000e+00  -4.127481e-01 1.114001e-01 0.000000e+00  -1.511547e-01 5.746481e-02 0.000000e+00  0.000000e+00 5.405102e-02 0.000000e+00  -1.403234e-01 6.488507e-02 0.000000e+00  -3.778101e-01 1.025864e-01 0.000000e+00  -2.581063e-01 7.576133e-02 0.000000e+00  -3.496217e-01 7.618677e-02 0.000000e+00  1.754841e-02 5.074409e-01 0.000000e+00  0.000000e+00 4.441490e-01 0.000000e+00  2.584384e-02 4.126272e-01 0.000000e+00  1.410320e-02 5.812699e-01 0.000000e+00  0.000000e+00 5.945678e-01 0.000000e+00  1.230205e-02 6.121399e-01 0.000000e+00  3.237280e-02 6.106042e-01 0.000000e+00  5.300406e-02 6.981996e-01 0.000000e+00  4.674633e-02 7.144464e-01 0.000000e+00  -6.501726e-01 1.214885e+00 0.000000e+00  -1.141405e+00 1.448255e+00 0.000000e+00  -9.715543e-01 1.291433e+00 0.000000e+00  -3.406422e-01 1.092951e+00 0.000000e+00  -6.029026e-01 1.324079e+00 0.000000e+00  -1.756760e-01 9.743762e-01 0.000000e+00  -1.756347e-01 9.852958e-01 0.000000e+00  -9.835510e-02 9.403494e-01 0.000000e+00  5.573324e-02 8.189231e-01 0.000000e+00  -1.884774e-01 1.800145e+00 0.000000e+00  -2.789308e-01 2.657609e+00 0.000000e+00  0.000000e+00 2.618817e+00 0.000000e+00  -2.010034e-01 1.195271e+00 0.000000e+00  -4.465545e-01 1.505225e+00 0.000000e+00  -1.539439e-01 9.598249e-01 0.000000e+00  -6.873468e-02 9.965782e-01 0.000000e+00  0.000000e+00 9.289213e-01 0.000000e+00  8.974463e-03 6.179114e-01 0.000000e+00  2.151649e-02 7.362815e-01 0.000000e+00  2.415128e-02 6.580211e-01 0.000000e+00  4.073410e-02 7.250170e-01 0.000000e+00  -1.471098e-02 3.644372e-01 0.000000e+00  0.000000e+00 1.827806e-01 0.000000e+00  -1.381730e-02 1.815757e-01 0.000000e+00  -1.645815e-02 5.509095e-01 0.000000e+00  0.000000e+00 5.568648e-01 0.000000e+00  -2.027913e-02 7.505524e-01 0.000000e+00  -3.139019e-02 5.345837e-01 0.000000e+00  -4.494096e-02 5.201632e-01 0.000000e+00  -5.073400e-02 6.883135e-01 0.000000e+00  -4.931002e-01 1.650627e+00 0.000000e+00  -6.753012e-01 1.820722e+00 0.000000e+00  -2.614452e-01 1.262401e+00 0.000000e+00  -6.717417e-01 2.092453e+00 0.000000e+00  -1.078300e+00 2.678561e+00 0.000000e+00  -7.296040e-01 2.488962e+00 0.000000e+00  -2.616598e-01 1.295699e+00 0.000000e+00  -7.820877e-02 8.048044e-01 0.000000e+00  -9.147583e-02 8.843652e-01 0.000000e+00  -2.613464e-01 3.107143e+00 0.000000e+00  -3.049904e-01 3.181983e+00 0.000000e+00  0.000000e+00 3.142708e+00 0.000000e+00  -4.929780e-01 2.995149e+00 0.000000e+00  -8.541564e-01 3.103891e+00 0.000000e+00  -6.611350e-01 2.792816e+00 0.000000e+00  -1.679769e-01 2.402655e+00 0.000000e+00  0.000000e+00 1.426944e+00 0.000000e+00  -6.701953e-02 1.374884e+00 0.000000e+00  -3.710720e-01 1.982245e+00 0.000000e+00  -1.097451e-01 1.236784e+00 0.000000e+00  -1.157146e-01 1.055991e+00 0.000000e+00  -9.262565e-02 1.538884e+00 0.000000e+00  -4.836827e-02 1.525340e+00 0.000000e+00  -4.585024e-02 1.522317e+00 0.000000e+00  -1.418673e-01 1.567101e+00 0.000000e+00  -1.505406e-01 1.570157e+00 0.000000e+00  -1.993100e-01 1.608362e+00 0.000000e+00  -1.272736e-01 1.545285e+00 0.000000e+00  -1.136049e-01 1.505888e+00 0.000000e+00  -1.495109e-01 1.541767e+00 0.000000e+00  -6.432956e-01 1.731479e+00 0.000000e+00  -7.356997e-01 1.826298e+00 0.000000e+00  -3.070337e-01 1.431897e+00 0.000000e+00  -9.915680e-01 1.941576e+00 0.000000e+00  -1.461167e+00 2.250528e+00 0.000000e+00  -1.258751e+00 2.017912e+00 0.000000e+00  -4.221346e-01 1.610142e+00 0.000000e+00  -1.348587e-01 1.440144e+00 0.000000e+00  -1.987885e-01 1.537021e+00 0.000000e+00  -1.400007e+00 1.730895e+00 0.000000e+00  -1.436587e+00 1.631804e+00 0.000000e+00  -1.289900e+00 1.595394e+00 0.000000e+00  -1.448988e+00 1.869415e+00 0.000000e+00  -1.647428e+00 2.031150e+00 0.000000e+00  -1.409768e+00 1.979410e+00 0.000000e+00  -1.027472e+00 1.737742e+00 0.000000e+00  -5.046341e-01 1.654340e+00 0.000000e+00  -4.950251e-01 1.676740e+00 0.000000e+00  -8.787790e-01 1.812160e+00 0.000000e+00  -4.277200e-01 1.670346e+00 0.000000e+00  -3.184632e-01 1.623687e+00 0.000000e+00  -1.131997e+00 2.273498e+00 0.000000e+00  -1.341560e+00 2.637411e+00 0.000000e+00  -1.333900e+00 2.852494e+00 0.000000e+00  -1.479268e+00 2.471320e+00 0.000000e+00  -1.650977e+00 2.419970e+00 0.000000e+00  -1.335888e+00 1.661423e+00 0.000000e+00  -1.118246e+00 1.672088e+00 0.000000e+00  -9.230299e-01 1.708858e+00 0.000000e+00  -1.523715e+00 1.925880e+00 0.000000e+00  -1.649989e+00 2.204350e+00 0.000000e+00  -5.735430e-01 2.753078e+00 0.000000e+00  -7.242928e-01 2.231153e+00 0.000000e+00  -8.074048e-01 1.868046e+00 0.000000e+00  -8.782148e-01 2.859562e+00 0.000000e+00  -1.154341e+00 2.913526e+00 0.000000e+00  -1.213804e+00 2.195178e+00 0.000000e+00  -1.374785e+00 2.639615e+00 0.000000e+00  -1.539957e+00 2.398556e+00 0.000000e+00  -2.699018e-02 1.784894e-01 0.000000e+00  -1.353619e-02 0.000000e+00 0.000000e+00  -4.116204e-02 3.484489e-01 0.000000e+00  -5.642501e-02 5.078552e-01 0.000000e+00  -3.898632e-02 1.746289e-01 0.000000e+00  -3.827391e-02 0.000000e+00 0.000000e+00  -4.938106e-02 1.708154e-01 0.000000e+00  -1.221046e-01 9.593653e-01 0.000000e+00  -1.491181e-01 1.098141e+00 0.000000e+00  -9.233461e-02 8.033880e-01 0.000000e+00  -7.227860e-02 6.564671e-01 0.000000e+00  -1.011519e-01 7.983496e-01 0.000000e+00  -1.024076e-01 7.865249e-01 0.000000e+00  -8.723291e-02 6.404912e-01 0.000000e+00  -6.781391e-02 1.617485e-01 0.000000e+00  -6.886367e-02 1.592162e-01 0.000000e+00  -6.661894e-02 0.000000e+00 0.000000e+00  -7.145873e-02 3.227487e-01 0.000000e+00  -7.904950e-02 4.752553e-01 0.000000e+00  -7.776265e-02 4.823807e-01 0.000000e+00  -6.407211e-02 1.644132e-01 0.000000e+00  -5.684264e-02 0.000000e+00 0.000000e+00  -5.783848e-02 1.673921e-01 0.000000e+00  -6.578126e-02 4.974340e-01 0.000000e+00  -7.311370e-02 4.893391e-01 0.000000e+00  -6.083083e-02 3.336553e-01 0.000000e+00  -1.286446e-02 1.459499e-01 0.000000e+00  -1.268413e-02 0.000000e+00 0.000000e+00  0.000000e+00 1.456739e-01 0.000000e+00  -2.532031e-02 1.467609e-01 0.000000e+00  -3.641020e-02 0.000000e+00 0.000000e+00  -3.695620e-02 1.480711e-01 0.000000e+00  -1.340245e-02 2.907914e-01 0.000000e+00  0.000000e+00 4.325313e-01 0.000000e+00  -1.428929e-02 4.333973e-01 0.000000e+00  -1.879796e-02 8.359671e-01 0.000000e+00  -2.078099e-02 9.575718e-01 0.000000e+00  0.000000e+00 9.552047e-01 0.000000e+00  -3.372433e-02 7.118618e-01 0.000000e+00  -4.977076e-02 7.194797e-01 0.000000e+00  -4.505859e-02 5.819548e-01 0.000000e+00  -1.702407e-02 7.072150e-01 0.000000e+00  0.000000e+00 7.056524e-01 0.000000e+00  -1.550676e-02 5.726071e-01 0.000000e+00  -6.283132e-02 1.542517e-01 0.000000e+00  -6.716536e-02 1.567139e-01 0.000000e+00  -6.599748e-02 0.000000e+00 0.000000e+00  -5.884355e-02 3.029965e-01 0.000000e+00  -6.344452e-02 4.524035e-01 0.000000e+00  -5.320898e-02 4.456867e-01 0.000000e+00  -5.611396e-02 1.519152e-01 0.000000e+00  -5.520988e-02 0.000000e+00 0.000000e+00  -4.735791e-02 1.498186e-01 0.000000e+00  -4.130435e-02 4.401137e-01 0.000000e+00  -3.859150e-02 2.951228e-01 0.000000e+00  -2.819037e-02 4.359578e-01 0.000000e+00  -4.229559e-02 1.502304e+00 0.000000e+00  0.000000e+00 1.516851e+00 0.000000e+00  -7.637452e-02 1.480726e+00 0.000000e+00  -1.011635e-01 1.449985e+00 0.000000e+00  -3.833177e-02 1.465783e+00 0.000000e+00  0.000000e+00 1.460826e+00 0.000000e+00  -3.446760e-02 1.413582e+00 0.000000e+00  -1.490079e-01 1.288591e+00 0.000000e+00  -1.588655e-01 1.208136e+00 0.000000e+00  -1.289563e-01 1.352069e+00 0.000000e+00  -1.163032e-01 1.406969e+00 0.000000e+00  -1.220446e-01 1.251319e+00 0.000000e+00  -1.112835e-01 1.137500e+00 0.000000e+00  -9.808499e-02 1.222109e+00 0.000000e+00  -2.529823e-02 1.174134e+00 0.000000e+00  -2.294225e-02 1.070723e+00 0.000000e+00  0.000000e+00 1.170922e+00 0.000000e+00  -5.022618e-02 1.183750e+00 0.000000e+00  -6.782519e-02 1.092963e+00 0.000000e+00  -7.448634e-02 1.199730e+00 0.000000e+00  -2.793401e-02 1.266556e+00 0.000000e+00  0.000000e+00 1.342687e+00 0.000000e+00  -3.097128e-02 1.346775e+00 0.000000e+00  -9.029883e-02 1.379253e+00 0.000000e+00  -8.165539e-02 1.295470e+00 0.000000e+00  -6.133691e-02 1.359010e+00 0.000000e+00  -1.362725e-01 1.068581e+00 0.000000e+00  -1.148175e-01 9.215269e-01 0.000000e+00  -9.833441e-02 7.722604e-01 0.000000e+00  -1.182233e-01 1.038816e+00 0.000000e+00  -9.981783e-02 1.013545e+00 0.000000e+00  -4.131028e-02 9.646505e-01 0.000000e+00  -5.528754e-02 8.514176e-01 0.000000e+00  -6.480649e-02 7.298537e-01 0.000000e+00  -6.138557e-02 9.763914e-01 0.000000e+00  -8.089532e-02 9.927209e-01 0.000000e+00  -7.072741e-02 3.127879e-01 0.000000e+00  -7.686718e-02 4.676601e-01 0.000000e+00  -8.591078e-02 6.209109e-01 0.000000e+00  -7.150659e-02 4.598843e-01 0.000000e+00  -6.996479e-02 5.992650e-01 0.000000e+00  -8.990085e-02 7.571135e-01 0.000000e+00  -7.839373e-02 7.426125e-01 0.000000e+00  -8.853688e-02 8.812469e-01 0.000000e+00  3.987201e-02 3.945333e-01 0.000000e+00  4.093000e-02 2.220745e-01 0.000000e+00  4.735554e-02 5.496990e-01 0.000000e+00  5.841102e-02 6.839779e-01 0.000000e+00  5.141255e-02 4.069899e-01 0.000000e+00  6.295050e-02 2.972839e-01 0.000000e+00  5.979567e-02 4.123461e-01 0.000000e+00  -4.299452e-01 1.033422e+00 0.000000e+00  -8.349233e-01 1.182050e+00 0.000000e+00  -7.950232e-02 9.124728e-01 0.000000e+00  6.827900e-02 8.073146e-01 0.000000e+00  -8.674513e-02 8.860732e-01 0.000000e+00  -9.457740e-02 8.726816e-01 0.000000e+00  4.186510e-02 7.762854e-01 0.000000e+00  6.287294e-02 8.890690e-01 0.000000e+00  -2.237071e-02 1.266748e+00 0.000000e+00  -1.308469e-01 1.309409e+00 0.000000e+00  1.015126e-01 6.751101e-01 0.000000e+00  9.902449e-02 7.972416e-01 0.000000e+00  8.067111e-02 6.795894e-01 0.000000e+00  8.332593e-02 5.538246e-01 0.000000e+00  5.939585e-02 4.644607e-01 0.000000e+00  6.673408e-02 4.093664e-01 0.000000e+00  6.357047e-02 6.728195e-01 0.000000e+00  6.843796e-02 6.611154e-01 0.000000e+00  6.213963e-02 5.358541e-01 0.000000e+00  -1.000471e-01 1.527415e+00 0.000000e+00  -4.956652e-02 1.511324e+00 0.000000e+00  -1.528167e-01 1.554660e+00 0.000000e+00  -2.123780e-01 1.593376e+00 0.000000e+00  -1.498461e-01 1.521430e+00 0.000000e+00  -1.473050e-01 1.471104e+00 0.000000e+00  -1.950409e-01 1.504105e+00 0.000000e+00  -1.141419e+00 1.482172e+00 0.000000e+00  -1.116649e+00 1.340885e+00 0.000000e+00  -8.801761e-01 1.579718e+00 0.000000e+00  -4.610172e-01 1.617007e+00 0.000000e+00  -9.726568e-01 1.399753e+00 0.000000e+00  -8.001498e-01 1.211664e+00 0.000000e+00  -7.985382e-01 1.348739e+00 0.000000e+00  -3.942583e-01 1.263612e+00 0.000000e+00  -3.814970e-01 1.169538e+00 0.000000e+00  -3.396837e-01 1.187799e+00 0.000000e+00  -4.944772e-01 1.300865e+00 0.000000e+00  -5.279905e-01 1.208106e+00 0.000000e+00  -6.339145e-01 1.321377e+00 0.000000e+00  -3.520475e-01 1.372901e+00 0.000000e+00  -2.340038e-01 1.380702e+00 0.000000e+00  -2.540236e-01 1.464852e+00 0.000000e+00  -3.869946e-01 1.574032e+00 0.000000e+00  -5.961924e-01 1.464901e+00 0.000000e+00  -3.109004e-01 1.525542e+00 0.000000e+00  -5.336198e-01 2.005062e-01 0.000000e+00  -5.388756e-01 9.139030e-02 0.000000e+00  -5.293174e-01 9.980001e-02 0.