<?xml version="1.0"?>
<VTKFile type="UnstructuredGrid"  version="0.1"  >
<UnstructuredGrid>
<Piece  NumberOfPoints="833" NumberOfCells="1536">
<Points>
<DataArray  type="Float32"  NumberOfComponents="3"  format="ascii">0 0 0  1 0 0  1 1 0  0 1 0  -1 1 0  -1 0 0  -1 -1 0  0 -1 0  0.5 0.5 0  0 0.5 0  0.5 0 0  0.5 1 0  1 0.5 0  -0.5 0.5 0  -0.5 0 0  -1 0.5 0  -0.5 1 0  -0.5 -0.5 0  0 -0.5 0  -0.5 -1 0  -1 -0.5 0  0.25 0.25 0  0.25 0 0  0 0.25 0  0.5 0.25 0  0.75 0 0  0.75 0.25 0  0.25 0.5 0  0 0.75 0  0.25 0.75 0  0.75 0.5 0  1 0.25 0  0.75 0.75 0  1 0.75 0  0.75 1 0  0.5 0.75 0  0.25 1 0  -0.25 0.25 0  -0.25 0 0  -0.25 0.5 0  -0.25 0.75 0  -0.5 0.25 0  -0.75 0 0  -0.75 0.25 0  -0.5 0.75 0  -0.25 1 0  -0.75 0.75 0  -0.75 1 0  -1 0.75 0  -0.75 0.5 0  -1 0.25 0  -0.25 -0.25 0  0 -0.25 0  -0.5 -0.25 0  -0.75 -0.25 0  -0.25 -0.5 0  0 -0.75 0  -0.25 -0.75 0  -0.75 -0.5 0  -1 -0.25 0  -0.75 -0.75 0  -1 -0.75 0  -0.75 -1 0  -0.5 -0.75 0  -0.25 -1 0  0.125 0.125 0  0 0.125 0  0.125 0 0  0.125 0.25 0  0 0.375 0  0.125 0.375 0  0.25 0.125 0  0.375 0 0  0.375 0.125 0  0.75 0.125 0  0.875 0.125 0  0.875 0 0  0.625 0.25 0  0.625 0.375 0  0.5 0.375 0  0.625 0.125 0  0.625 0 0  0.5 0.125 0  0.125 0.75 0  0.125 0.875 0  0 0.875 0  0.25 0.625 0  0.375 0.625 0  0.375 0.5 0  0.125 0.625 0  0 0.625 0  0.125 0.5 0  0.375 0.375 0  0.25 0.375 0  0.375 0.25 0  0.875 0.25 0  1 0.125 0  0.75 0.375 0  0.625 0.5 0  0.875 0.375 0  1 0.375 0  0.875 0.5 0  0.875 0.875 0  0.875 1 0  1 0.875 0  0.75 0.875 0  0.625 1 0  0.625 0.875 0  0.875 0.75 0  1 0.625 0  0.875 0.625 0  0.25 0.875 0  0.125 1 0  0.375 0.75 0  0.5 0.625 0  0.375 0.875 0  0.375 1 0  0.5 0.875 0  0.625 0.625 0  0.625 0.75 0  0.75 0.625 0  -0.125 0.125 0  -0.125 0 0  -0.125 0.25 0  -0.125 0.375 0  -0.25 0.125 0  -0.375 0 0  -0.375 0.125 0  -0.125 0.75 0  -0.125 0.875 0  -0.125 0.625 0  -0.125 0.5 0  -0.25 0.625 0  -0.375 0.625 0  -0.375 0.5 0  -0.75 0.125 0  -0.875 0.125 0  -0.875 0 0  -0.625 0.25 0  -0.625 0.375 0  -0.5 0.375 0  -0.625 0.125 0  -0.625 0 0  -0.5 0.125 0  -0.25 0.375 0  -0.375 0.375 0  -0.375 0.25 0  -0.25 0.875 0  -0.125 1 0  -0.375 0.75 0  -0.5 0.625 0  -0.375 0.875 0  -0.375 1 0  -0.5 0.875 0  -0.875 0.875 0  -1 0.875 0  -0.875 1 0  -0.875 0.75 0  -1 0.625 0  -0.875 0.625 0  -0.75 0.875 0  -0.625 1 0  -0.625 0.875 0  -0.875 0.25 0  -1 0.125 0  -0.75 0.375 0  -0.625 0.5 0  -0.875 0.375 0  -1 0.375 0  -0.875 0.5 0  -0.625 0.625 0  -0.75 0.625 0  -0.625 0.75 0  -0.125 -0.125 0  0 -0.125 0  -0.25 -0.125 0  -0.375 -0.125 0  -0.125 -0.25 0  0 -0.375 0  -0.125 -0.375 0  -0.75 -0.125 0  -0.875 -0.125 0  -0.625 -0.125 0  -0.5 -0.125 0  -0.625 -0.25 0  -0.625 -0.375 0  -0.5 -0.375 0  -0.125 -0.75 0  -0.125 -0.875 0  0 -0.875 0  -0.25 -0.625 0  -0.375 -0.625 0  -0.375 -0.5 0  -0.125 -0.625 0  0 -0.625 0  -0.125 -0.5 0  -0.375 -0.25 0  -0.375 -0.375 0  -0.25 -0.375 0  -0.875 -0.25 0  -1 -0.125 0  -0.75 -0.375 0  -0.625 -0.5 0  -0.875 -0.375 0  -1 -0.375 0  -0.875 -0.5 0  -0.875 -0.875 0  -0.875 -1 0  -1 -0.875 0  -0.75 -0.875 0  -0.625 -1 0  -0.625 -0.875 0  -0.875 -0.75 0  -1 -0.625 0  -0.875 -0.625 0  -0.25 -0.875 0  -0.125 -1 0  -0.375 -0.75 0  -0.5 -0.625 0  -0.375 -0.875 0  -0.375 -1 0  -0.5 -0.875 0  -0.625 -0.625 0  -0.625 -0.75 0  -0.75 -0.625 0  0.0625 0.0625 0  0.0625 0 0  0 0.0625 0  0.125 0.0625 0  0.1875 0 0  0.1875 0.0625 0  0.0625 0.125 0  0 0.1875 0  0.0625 0.1875 0  0.0625 0.375 0  0.0625 0.4375 0  0 0.4375 0  0.125 0.3125 0  0.1875 0.3125 0  0.1875 0.25 0  0.0625 0.3125 0  0 0.3125 0  0.0625 0.25 0  0.375 0.0625 0  0.4375 0.0625 0  0.4375 0 0  0.3125 0.125 0  0.3125 0.1875 0  0.25 0.1875 0  0.3125 0.0625 0  0.3125 0 0  0.25 0.0625 0  0.1875 0.1875 0  0.1875 0.125 0  0.125 0.1875 0  0.875 0.0625 0  0.9375 0 0  0.9375 0.0625 0  0.8125 0.0625 0  0.8125 0 0  0.75 0.0625 0  0.8125 0.125 0  0.8125 0.1875 0  0.75 0.1875 0  0.5625 0.375 0  0.5 0.4375 0  0.5625 0.4375 0  0.5625 0.3125 0  0.5 0.3125 0  0.5625 0.25 0  0.625 0.3125 0  0.6875 0.3125 0  0.6875 0.25 0  0.5625 0.0625 0  0.5 0.0625 0  0.5625 0 0  0.5625 0.125 0  0.5 0.1875 0  0.5625 0.1875 0  0.625 0.0625 0  0.6875 0 0  0.6875 0.0625 0  0.625 0.1875 0  0.6875 0.125 0  0.6875 0.1875 0  0.0625 0.875 0  0 0.9375 0  0.0625 0.9375 0  0.0625 0.8125 0  0 0.8125 0  0.0625 0.75 0  0.125 0.8125 0  0.1875 0.8125 0  0.1875 0.75 0  0.375 0.5625 0  0.4375 0.5 0  0.4375 0.5625 0  0.3125 0.5625 0  0.3125 0.5 0  0.25 0.5625 0  0.3125 0.625 0  0.3125 0.6875 0  0.25 0.6875 0  0.0625 0.5625 0  0.0625 0.5 0  0 0.5625 0  0.125 0.5625 0  0.1875 0.5 0  0.1875 0.5625 0  0.0625 0.625 0  0 0.6875 0  0.0625 0.6875 0  0.1875 0.625 0  0.125 0.6875 0  0.1875 0.6875 0  0.4375 0.4375 0  0.4375 0.375 0  0.4375 0.3125 0  0.375 0.4375 0  0.3125 0.4375 0  0.125 0.4375 0  0.1875 0.375 0  0.25 0.3125 0  0.1875 0.4375 0  0.25 0.4375 0  0.4375 0.125 0  0.375 0.1875 0  0.3125 0.25 0  0.4375 0.1875 0  0.4375 0.25 0  0.3125 0.3125 0  0.375 0.3125 0  0.3125 0.375 0  0.9375 0.125 0  1 0.0625 0  0.875 0.1875 0  0.8125 0.25 0  0.9375 0.1875 0  1 0.1875 0  0.9375 0.25 0  0.625 0.4375 0  0.5625 0.5 0  0.6875 0.375 0  0.75 0.3125 0  0.6875 0.4375 0  0.6875 0.5 0  0.75 0.4375 0  0.9375 0.4375 0  0.9375 0.5 0  1 0.4375 0  0.875 0.4375 0  0.8125 0.5 0  0.8125 0.4375 0  0.9375 0.375 0  1 0.3125 0  0.9375 0.3125 0  0.8125 0.3125 0  0.8125 0.375 0  0.875 0.3125 0  0.9375 0.9375 0  1 0.9375 0  0.9375 1 0  0.9375 0.875 0  1 0.8125 0  0.9375 0.8125 0  0.875 0.9375 0  0.8125 1 0  0.8125 0.9375 0  0.625 0.9375 0  0.5625 0.9375 0  0.5625 1 0  0.6875 0.875 0  0.6875 0.8125 0  0.75 0.8125 0  0.6875 0.9375 0  0.6875 1 0  0.75 0.9375 0  0.9375 0.625 0  0.9375 0.5625 0  1 0.5625 0  0.875 0.6875 0  0.8125 0.6875 0  0.8125 0.75 0  0.9375 0.6875 0  1 0.6875 0  0.9375 0.75 0  0.8125 0.8125 0  0.875 0.8125 0  0.8125 0.875 0  0.125 0.9375 0  0.0625 1 0  0.1875 0.875 0  0.25 0.8125 0  0.1875 0.9375 0  0.1875 1 0  0.25 0.9375 0  0.4375 0.625 0  0.5 0.5625 0  0.375 0.6875 0  0.3125 0.75 0  0.4375 0.6875 0  0.5 0.6875 0  0.4375 0.75 0  0.4375 0.9375 0  0.5 0.9375 0  0.4375 1 0  0.4375 0.875 0  0.5 0.8125 0  0.4375 0.8125 0  0.375 0.9375 0  0.3125 1 0  0.3125 0.9375 0  0.3125 0.8125 0  0.375 0.8125 0  0.3125 0.875 0  0.5625 0.5625 0  0.625 0.5625 0  0.6875 0.5625 0  0.5625 0.625 0  0.5625 0.6875 0  0.5625 0.875 0  0.625 0.8125 0  0.6875 0.75 0  0.5625 0.8125 0  0.5625 0.75 0  0.875 0.5625 0  0.8125 0.5625 0  0.75 0.5625 0  0.8125 0.625 0  0.75 0.6875 0  0.6875 0.625 0  0.6875 0.6875 0  0.625 0.6875 0  -0.0625 0.0625 0  -0.0625 0 0  -0.0625 0.125 0  -0.0625 0.1875 0  -0.125 0.0625 0  -0.1875 0 0  -0.1875 0.0625 0  -0.0625 0.375 0  -0.0625 0.4375 0  -0.0625 0.3125 0  -0.0625 0.25 0  -0.125 0.3125 0  -0.1875 0.3125 0  -0.1875 0.25 0  -0.375 0.0625 0  -0.4375 0.0625 0  -0.4375 0 0  -0.3125 0.125 0  -0.3125 0.1875 0  -0.25 0.1875 0  -0.3125 0.0625 0  -0.3125 0 0  -0.25 0.0625 0  -0.125 0.1875 0  -0.1875 0.1875 0  -0.1875 0.125 0  -0.0625 0.875 0  -0.0625 0.9375 0  -0.0625 0.8125 0  -0.0625 0.75 0  -0.125 0.8125 0  -0.1875 0.8125 0  -0.1875 0.75 0  -0.0625 0.5625 0  -0.0625 0.5 0  -0.0625 0.625 0  -0.0625 0.6875 0  -0.125 0.5625 0  -0.1875 0.5 0  -0.1875 0.5625 0  -0.375 0.5625 0  -0.4375 0.5 0  -0.4375 0.5625 0  -0.3125 0.5625 0  -0.3125 0.5 0  -0.25 0.5625 0  -0.3125 0.625 0  -0.3125 0.6875 0  -0.25 0.6875 0  -0.125 0.6875 0  -0.1875 0.625 0  -0.1875 0.6875 0  -0.875 0.0625 0  -0.9375 0 0  -0.9375 0.0625 0  -0.8125 0.0625 0  -0.8125 0 0  -0.75 0.0625 0  -0.8125 0.125 0  -0.8125 0.1875 0  -0.75 0.1875 0  -0.5625 0.375 0  -0.5 0.4375 0  -0.5625 0.4375 0  -0.5625 0.3125 0  -0.5 0.3125 0  -0.5625 0.25 0  -0.625 0.3125 0  -0.6875 0.3125 0  -0.6875 0.25 0  -0.5625 0.0625 0  -0.5 0.0625 0  -0.5625 0 0  -0.5625 0.125 0  -0.5 0.1875 0  -0.5625 0.1875 0  -0.625 0.0625 0  -0.6875 0 0  -0.6875 0.0625 0  -0.625 0.1875 0  -0.6875 0.125 0  -0.6875 0.1875 0  -0.125 0.4375 0  -0.1875 0.375 0  -0.25 0.3125 0  -0.1875 0.4375 0  -0.25 0.4375 0  -0.4375 0.4375 0  -0.375 0.4375 0  -0.3125 0.4375 0  -0.4375 0.375 0  -0.4375 0.3125 0  -0.4375 0.125 0  -0.375 0.1875 0  -0.3125 0.25 0  -0.4375 0.1875 0  -0.4375 0.25 0  -0.3125 0.3125 0  -0.3125 0.375 0  -0.375 0.3125 0  -0.125 0.9375 0  -0.0625 1 0  -0.1875 0.875 0  -0.25 0.8125 0  -0.1875 0.9375 0  -0.1875 1 0  -0.25 0.9375 0  -0.4375 0.625 0  -0.5 0.5625 0  -0.375 0.6875 0  -0.3125 0.75 0  -0.4375 0.6875 0  -0.5 0.6875 0  -0.4375 0.75 0  -0.4375 0.9375 0  -0.5 0.9375 0  -0.4375 1 0  -0.4375 0.875 0  -0.5 0.8125 0  -0.4375 0.8125 0  -0.375 0.9375 0  -0.3125 1 0  -0.3125 0.9375 0  -0.3125 0.8125 0  -0.375 0.8125 0  -0.3125 0.875 0  -0.9375 0.9375 0  -0.9375 1 0  -1 0.9375 0  -0.875 0.9375 0  -0.8125 1 0  -0.8125 0.9375 0  -0.9375 0.875 0  -1 0.8125 0  -0.9375 0.8125 0  -0.9375 0.625 0  -0.9375 0.5625 0  -1 0.5625 0  -0.875 0.6875 0  -0.8125 0.6875 0  -0.8125 0.75 0  -0.9375 0.6875 0  -1 0.6875 0  -0.9375 0.75 0  -0.625 0.9375 0  -0.5625 0.9375 0  -0.5625 1 0  -0.6875 0.875 0  -0.6875 0.8125 0  -0.75 0.8125 0  -0.6875 0.9375 0  -0.6875 1 0  -0.75 0.9375 0  -0.8125 0.8125 0  -0.8125 0.875 0  -0.875 0.8125 0  -0.9375 0.125 0  -1 0.0625 0  -0.875 0.1875 0  -0.8125 0.25 0  -0.9375 0.1875 0  -1 0.1875 0  -0.9375 0.25 0  -0.625 0.4375 0  -0.5625 0.5 0  -0.6875 0.375 0  -0.75 0.3125 0  -0.6875 0.4375 0  -0.6875 0.5 0  -0.75 0.4375 0  -0.9375 0.4375 0  -0.9375 0.5 0  -1 0.4375 0  -0.875 0.4375 0  -0.8125 0.5 0  -0.8125 0.4375 0  -0.9375 0.375 0  -1 0.3125 0  -0.9375 0.3125 0  -0.8125 0.3125 0  -0.8125 0.375 0  -0.875 0.3125 0  -0.5625 0.5625 0  -0.5625 0.625 0  -0.5625 0.6875 0  -0.625 0.5625 0  -0.6875 0.5625 0  -0.875 0.5625 0  -0.8125 0.625 0  -0.75 0.6875 0  -0.8125 0.5625 0  -0.75 0.5625 0  -0.5625 0.875 0  -0.5625 0.8125 0  -0.5625 0.75 0  -0.625 0.8125 0  -0.6875 0.75 0  -0.625 0.6875 0  -0.6875 0.6875 0  -0.6875 0.625 0  -0.0625 -0.0625 0  0 -0.0625 0  -0.125 -0.0625 0  -0.1875 -0.0625 0  -0.0625 -0.125 0  0 -0.1875 0  -0.0625 -0.1875 0  -0.375 -0.0625 0  -0.4375 -0.0625 0  -0.3125 -0.0625 0  -0.25 -0.0625 0  -0.3125 -0.125 0  -0.3125 -0.1875 0  -0.25 -0.1875 0  
[...]
<PointData  Vectors="u"> 
<DataArray  type="Float32"  Name="u"  NumberOfComponents="3" format="ascii">0.000000e+00 0.000000e+00 0.000000e+00  0.000000e+00 0.000000e+00 0.000000e+00  0.000000e+00 0.000000e+00 0.000000e+00  0.000000e+00 1.951350e+00 0.000000e+00  0.000000e+00 0.000000e+00 0.000000e+00  -1.002349e+00 0.000000e+00 0.000000e+00  0.000000e+00 0.000000e+00 0.000000e+00  0.000000e+00 0.000000e+00 0.000000e+00  -8.363715e-01 2.131610e+00 0.000000e+00  -1.531712e+00 1.855659e+00 0.000000e+00  0.000000e+00 3.650824e+00 0.000000e+00  0.000000e+00 1.533698e+00 0.000000e+00  -3.102793e-01 0.000000e+00 0.000000e+00  -6.235517e-01 1.307752e+00 0.000000e+00  -7.191884e-01 1.825412e+00 0.000000e+00  -5.932182e-01 0.000000e+00 0.000000e+00  0.000000e+00 1.232903e+00 0.000000e+00  -1.459923e+00 8.238587e-01 0.000000e+00  -3.063424e+00 0.000000e+00 0.000000e+00  0.000000e+00 3.007952e-01 0.000000e+00  -9.034975e-01 0.000000e+00 0.000000e+00  -6.681534e-01 1.756269e+00 0.000000e+00  0.000000e+00 1.036357e+00 0.000000e+00  -1.851320e-01 1.097871e+00 0.000000e+00  -1.248279e+00 3.496166e+00 0.000000e+00  0.000000e+00 1.161457e+00 0.000000e+00  -2.992255e-01 1.181988e+00 0.000000e+00  -1.935747e+00 2.710949e+00 0.000000e+00  -4.206961e-01 2.036918e+00 0.000000e+00  -4.487986e-01 2.027228e+00 0.000000e+00  -4.029671e-01 1.048912e+00 0.000000e+00  -2.301745e-01 0.000000e+00 0.000000e+00  -2.538516e-01 9.056848e-01 0.000000e+00  -2.078395e-01 0.000000e+00 0.000000e+00  0.000000e+00 8.495425e-01 0.000000e+00  -3.674006e-01 1.647520e+00 0.000000e+00  0.000000e+00 1.914142e+00 0.000000e+00  -2.533412e-01 1.053164e+00 0.000000e+00  -2.739140e-01 5.181784e-01 0.000000e+00  -9.208330e-01 1.504353e+00 0.000000e+00  -4.033591e-01 1.744967e+00 0.000000e+00  -4.799039e-01 1.510081e+00 0.000000e+00  -1.024634e+00 5.807285e-01 0.000000e+00  -8.307608e-01 6.775238e-01 0.000000e+00  -3.433531e-01 1.255981e+00 0.000000e+00  0.000000e+00 1.694034e+00 0.000000e+00  -3.177979e-01 6.540745e-01 0.000000e+00  0.000000e+00 6.456785e-01 0.000000e+00  -3.114769e-01 0.000000e+00 0.000000e+00  -5.992224e-01 6.719487e-01 0.000000e+00  -8.275340e-01 0.000000e+00 0.000000e+00  -9.214946e-01 7.031044e-01 0.000000e+00  -3.702640e-01 0.000000e+00 0.000000e+00  -1.728183e+00 1.986086e+00 0.000000e+00  -1.129986e+00 5.044643e-01 0.000000e+00  -2.856580e+00 1.206596e+00 0.000000e+00  -8.413921e-01 0.000000e+00 0.000000e+00  -8.521577e-01 2.822613e-01 0.000000e+00  -1.002189e+00 3.769630e-01 0.000000e+00  -1.057708e+00 0.000000e+00 0.000000e+00  -5.716495e-01 2.516103e-01 0.000000e+00  -5.193164e-01 0.000000e+00 0.000000e+00  0.000000e+00 2.038640e-01 0.000000e+00  -7.107537e-01 3.915393e-01 0.000000e+00  0.000000e+00 2.201075e-01 0.000000e+00  -7.325151e-02 9.122587e-01 0.000000e+00  -1.142240e-01 7.423510e-01 0.000000e+00  0.000000e+00 7.691275e-01 0.000000e+00  -1.995496e-01 1.190059e+00 0.000000e+00  -7.626948e-01 1.455253e+00 0.000000e+00  -1.113665e+00 1.802900e+00 0.000000e+00  -1.147925e-01 1.116084e+00 0.000000e+00  0.000000e+00 2.189382e+00 0.000000e+00  -5.213211e-01 2.464942e+00 0.000000e+00  -1.858199e-01 1.332459e+00 0.000000e+00  -1.395348e-01 6.304104e-01 0.000000e+00  0.000000e+00 6.121838e-01 0.000000e+00  -6.088320e-01 2.242398e+00 0.000000e+00  -5.333034e-01 1.691993e+00 0.000000e+00  -1.296881e+00 2.897180e+00 0.000000e+00  -4.328936e-01 2.804331e+00 0.000000e+00  0.000000e+00 3.001807e+00 0.000000e+00  -7.029138e-01 3.670793e+00 0.000000e+00  -5.314043e-01 2.086824e+00 0.000000e+00  -2.421695e-01 2.001074e+00 0.000000e+00  -2.248271e-01 1.972063e+00 0.000000e+00  -1.042470e+00 2.307084e+00 0.000000e+00  -6.528572e-01 2.063588e+00 0.000000e+00  -1.528775e+00 2.738058e+00 0.000000e+00  -1.321090e+00 2.279867e+00 0.000000e+00  -1.268012e+00 2.069835e+00 0.000000e+00  -1.847348e+00 2.275901e+00 0.000000e+00  -1.834400e+00 3.195188e+00 0.000000e+00  -1.636867e+00 2.508616e+00 0.000000e+00  -1.265833e+00 2.986323e+00 0.000000e+00  -2.479528e-01 6.004986e-01 0.000000e+00  -1.273931e-01 0.000000e+00 0.000000e+00  -3.851904e-01 1.120042e+00 0.000000e+00  -5.424359e-01 1.565106e+00 0.000000e+00  -3.159241e-01 5.645768e-01 0.000000e+00  -2.939838e-01 0.000000e+00 0.000000e+00  -3.323143e-01 5.282906e-01 0.000000e+00  -1.160150e-01 4.419411e-01 0.000000e+00  0.000000e+00 4.350022e-01 0.000000e+00  -1.104060e-01 0.000000e+00 0.000000e+00  -1.321625e-01 8.637909e-01 0.000000e+00  0.000000e+00 1.222554e+00 0.000000e+00  -1.563572e-01 1.244269e+00 0.000000e+00  -2.194858e-01 4.618850e-01 0.000000e+00  -2.787692e-01 0.000000e+00 0.000000e+00  -2.965579e-01 4.923681e-01 0.000000e+00  -2.280462e-01 1.942848e+00 0.000000e+00  0.000000e+00 1.974289e+00 0.000000e+00  -4.155557e-01 1.887826e+00 0.000000e+00  -5.629069e-01 1.810338e+00 0.000000e+00  -2.076688e-01 1.796619e+00 0.000000e+00  0.000000e+00 1.766943e+00 0.000000e+00  -1.833534e-01 1.561244e+00 0.000000e+00  -4.453917e-01 1.422462e+00 0.000000e+00  -3.073554e-01 1.310365e+00 0.000000e+00  -3.513611e-01 9.715389e-01 0.000000e+00  -1.816708e-01 7.267958e-01 0.000000e+00  -1.973253e-01 3.845638e-01 0.000000e+00  -1.994966e-01 1.046672e+00 0.000000e+00  -6.574368e-01 1.299079e+00 0.000000e+00  -2.306525e-01 7.593989e-01 0.000000e+00  -4.107882e-01 1.094691e+00 0.000000e+00  -2.622169e-01 1.192665e+00 0.000000e+00  -4.779857e-01 1.912199e+00 0.000000e+00  -2.246474e-01 1.868725e+00 0.000000e+00  -1.010017e+00 1.866982e+00 0.000000e+00  -1.219783e+00 1.601271e+00 0.000000e+00  -7.106542e-01 1.726915e+00 0.000000e+00  -5.372864e-01 1.554228e+00 0.000000e+00  -7.008041e-01 1.474532e+00 0.000000e+00  -9.226958e-01 6.998557e-01 0.000000e+00  -9.249917e-01 3.344247e-01 0.000000e+00  -1.008178e+00 3.060919e-01 0.000000e+00  -7.521468e-01 1.137274e+00 0.000000e+00  -7.191217e-01 1.016709e+00 0.000000e+00  -6.050144e-01 1.367324e+00 0.000000e+00  -8.003915e-01 1.349286e+00 0.000000e+00  -9.774200e-01 1.500903e+00 0.000000e+00  -4.846875e-01 1.673272e+00 0.000000e+00  -5.860346e-01 1.272658e+00 0.000000e+00  -5.371271e-01 1.384134e+00 0.000000e+00  -2.957440e-01 1.312905e+00 0.000000e+00  -2.063359e-01 1.706488e+00 0.000000e+00  0.000000e+00 1.852989e+00 0.000000e+00  -3.686830e-01 1.518825e+00 0.000000e+00  -4.970757e-01 1.280999e+00 0.000000e+00  -1.883906e-01 1.492919e+00 0.000000e+00  0.000000e+00 1.483980e+00 0.000000e+00  -1.752797e-01 1.238932e+00 0.000000e+00  -1.586345e-01 3.274072e-01 0.000000e+00  -1.577597e-01 0.000000e+00 0.000000e+00  0.000000e+00 3.263496e-01 0.000000e+00  -3.129809e-01 3.301836e-01 0.000000e+00  -4.575289e-01 0.000000e+00 0.000000e+00  -4.592474e-01 3.340532e-01 0.000000e+00  -1.613773e-01 6.479352e-01 0.000000e+00  0.000000e+00 9.505286e-01 0.000000e+00  -1.666106e-01 9.543745e-01 0.000000e+00  -8.282343e-01 3.408221e-01 0.000000e+00  -9.238032e-01 0.000000e+00 0.000000e+00  -7.202885e-01 6.783737e-01 0.000000e+00  -6.078480e-01 9.983906e-01 0.000000e+00  -7.178242e-01 3.406422e-01 0.000000e+00  -7.168939e-01 0.000000e+00 0.000000e+00  -5.946726e-01 3.379717e-01 0.000000e+00  -4.760005e-01 9.806783e-01 0.000000e+00  -4.648019e-01 6.628104e-01 0.000000e+00  -3.272065e-01 9.650661e-01 0.000000e+00  -2.549223e-01 1.854629e-01 0.000000e+00  -2.284481e-01 0.000000e+00 0.000000e+00  -3.454451e-01 3.566853e-01 0.000000e+00  -7.835380e-01 1.272276e+00 0.000000e+00  -3.990462e-01 1.433870e-01 0.000000e+00  -1.525390e+00 0.000000e+00 0.000000e+00  -1.771101e+00 5.038212e-01 0.000000e+00  -1.108516e+00 6.326031e-01 0.000000e+00  -1.064526e+00 2.959857e-01 0.000000e+00  -1.233285e+00 1.455045e+00 0.000000e+00  -1.187601e+00 1.997522e+00 0.000000e+00  -1.360979e+00 1.105124e+00 0.000000e+00  -1.252425e+00 6.752840e-01 0.000000e+00  -1.901895e+00 1.529856e+00 0.000000e+00  -1.009390e+00 1.746252e-01 0.000000e+00  -4.668169e-01 1.323487e-01 0.000000e+00  -4.496543e-01 0.000000e+00 0.000000e+00  -1.753125e+00 5.801683e-01 0.000000e+00  -1.190144e+00 5.093608e-01 0.000000e+00  -2.229579e+00 1.263525e+00 0.000000e+00  -2.331106e+00 4.128849e-01 0.000000e+00  -2.536025e+00 0.000000e+00 0.000000e+00  -3.067131e+00 6.746297e-01 0.000000e+00  -1.561577e+00 1.673417e+00 0.000000e+00  -2.371527e+00 1.811054e+00 0.000000e+00  -2.222901e+00 1.235958e+00 0.000000e+00  -1.076187e+00 2.596765e-01 0.000000e+00  -1.051196e+00 0.000000e+00 0.000000e+00  -1.105479e+00 4.416679e-01 0.000000e+00  -1.150284e+00 5.667156e-01 0.000000e+00  -1.033748e+00 2.239346e-01 0.000000e+00  -1.010878e+00 0.000000e+00 0.000000e+00  -9.269868e-01 1.903189e-01 0.000000e+00  -2.746495e-01 1.145339e-01 0.000000e+00  0.000000e+00 1.086525e-01 0.000000e+00  -2.681657e-01 0.000000e+00 0.000000e+00  -2.935398e-01 2.158557e-01 0.000000e+00  0.000000e+00 2.720259e-01 0.000000e+00  -3.229678e-01 2.898942e-01 0.000000e+00  -5.324666e-01 1.317015e-01 0.000000e+00  -7.362981e-01 0.000000e+00 0.000000e+00  -7.558053e-01 1.583149e-01 0.000000e+00  -4.343821e-01 2.363603e-01 0.000000e+00  0.000000e+00 1.213001e-01 0.000000e+00  -7.842387e-01 3.690012e-01 0.000000e+00  -1.059983e+00 5.293394e-01 0.000000e+00  -3.960594e-01 3.036995e-01 0.000000e+00  0.000000e+00 2.829637e-01 0.000000e+00  -3.586331e-01 3.223121e-01 0.000000e+00  -9.213921e-01 4.417840e-01 0.000000e+00  -6.345619e-01 3.452988e-01 0.000000e+00  -8.161630e-01 3.087285e-01 0.000000e+00  -5.123475e-02 6.641105e-01 0.000000e+00  0.000000e+00 5.262437e-01 0.000000e+00  -7.634072e-02 4.797376e-01 0.000000e+00  -3.929792e-02 8.163609e-01 0.000000e+00  0.000000e+00 9.093136e-01 0.000000e+00  -3.174614e-02 9.118302e-01 0.000000e+00  -8.763474e-02 8.259917e-01 0.000000e+00  -1.418572e-01 9.335799e-01 0.000000e+00  -1.097322e-01 9.773482e-01 0.000000e+00  -9.036401e-01 1.590824e+00 0.000000e+00  -1.398724e+00 1.847051e+00 0.000000e+00  -1.220412e+00 1.664243e+00 0.000000e+00  -5.764529e-01 1.474314e+00 0.000000e+00  -8.364111e-01 1.743539e+00 0.000000e+00  -3.714800e-01 1.366800e+00 0.000000e+00  -4.189239e-01 1.332152e+00 0.000000e+00  -3.601011e-01 1.262254e+00 0.000000e+00  -1.477095e-01 1.125697e+00 0.000000e+00  -2.351860e-01 2.273566e+00 0.000000e+00  -3.263000e-01 3.135935e+00 0.000000e+00  0.000000e+00 3.073801e+00 0.000000e+00  -3.018719e-01 1.650781e+00 0.000000e+00  -5.973861e-01 1.970059e+00 0.000000e+00  -3.047873e-01 1.375995e+00 0.000000e+00  -1.169381e-01 1.451123e+00 0.000000e+00  0.000000e+00 1.396765e+00 0.000000e+00  -3.528128e-02 1.001999e+00 0.000000e+00  -1.234318e-01 1.092228e+00 0.000000e+00  -6.663130e-02 9.718730e-01 0.000000e+00  -9.796762e-02 1.026784e+00 0.000000e+00  -7.242695e-02 6.257856e-01 0.000000e+00  0.000000e+00 3.096172e-01 0.000000e+00  -6.712196e-02 3.124352e-01 0.000000e+00  -8.276437e-02 9.456629e-01 0.000000e+00  0.000000e+00 8.849393e-01 0.000000e+00  -1.016527e-01 1.306755e+00 0.000000e+00  -1.566480e-01 9.614613e-01 0.000000e+00  -2.178596e-01 9.335731e-01 0.000000e+00  -2.456642e-01 1.252634e+00 0.000000e+00  -8.609945e-01 2.293307e+00 0.000000e+00  -1.090095e+00 2.485338e+00 0.000000e+00  -7.211953e-01 1.976875e+00 0.000000e+00  -9.709396e-01 2.694432e+00 0.000000e+00  -1.354780e+00 3.252925e+00 0.000000e+00  -9.632387e-01 3.053561e+00 0.000000e+00  -5.908063e-01 1.944313e+00 0.000000e+00  -4.131492e-01 1.453171e+00 0.000000e+00  -3.574314e-01 1.498411e+00 0.000000e+00  -3.198778e-01 3.612579e+00 0.000000e+00  -3.564070e-01 3.667920e+00 0.000000e+00  0.000000e+00 3.643368e+00 0.000000e+00  -6.088729e-01 3.517308e+00 0.000000e+00  -1.014174e+00 3.626319e+00 0.000000e+00  -8.345487e-01 3.333263e+00 0.000000e+00  -2.361265e-01 2.943823e+00 0.000000e+00  0.000000e+00 1.983059e+00 0.000000e+00  -1.468139e-01 1.969643e+00 0.000000e+00  -5.616628e-01 2.557366e+00 0.000000e+00  -2.607965e-01 1.892974e+00 0.000000e+00  -3.249248e-01 1.695244e+00 0.000000e+00  -2.366636e-01 1.997038e+00 0.000000e+00  -1.140255e-01 1.956124e+00 0.000000e+00  -1.176695e-01 1.978611e+00 0.000000e+00  -3.610592e-01 2.028608e+00 0.000000e+00  -3.213340e-01 1.998973e+00 0.000000e+00  -5.106536e-01 2.074875e+00 0.000000e+00  -3.741647e-01 2.035621e+00 0.000000e+00  -3.605727e-01 2.018032e+00 0.000000e+00  -4.876817e-01 2.067159e+00 0.000000e+00  -1.060964e+00 2.359161e+00 0.000000e+00  -1.167380e+00 2.485520e+00 0.000000e+00  -7.984463e-01 2.130585e+00 0.000000e+00  -1.366276e+00 2.521060e+00 0.000000e+00  -1.801542e+00 2.807508e+00 0.000000e+00  -1.596513e+00 2.554258e+00 0.000000e+00  -8.421643e-01 2.214078e+00 0.000000e+00  -5.606976e-01 2.047950e+00 0.000000e+00  -5.846758e-01 2.103084e+00 0.000000e+00  -1.677470e+00 2.164072e+00 0.000000e+00  -1.700448e+00 2.049257e+00 0.000000e+00  -1.556336e+00 1.997243e+00 0.000000e+00  -1.743103e+00 2.334613e+00 0.000000e+00  -1.939430e+00 2.511907e+00 0.000000e+00  -1.722558e+00 2.478364e+00 0.000000e+00  -1.327431e+00 2.184774e+00 0.000000e+00  -7.940355e-01 2.074522e+00 0.000000e+00  -8.269131e-01 2.136768e+00 0.000000e+00  -1.220967e+00 2.328256e+00 0.000000e+00  -8.090712e-01 2.169162e+00 0.000000e+00  -7.036843e-01 2.155775e+00 0.000000e+00  -1.502585e+00 2.890401e+00 0.000000e+00  -1.654516e+00 3.217454e+00 0.000000e+00  -1.592455e+00 3.403537e+00 0.000000e+00  -1.813895e+00 3.045243e+00 0.000000e+00  -1.959179e+00 2.954551e+00 0.000000e+00  -1.601377e+00 2.090061e+00 0.000000e+00  -1.376292e+00 2.113674e+00 0.000000e+00  -1.157871e+00 2.167529e+00 0.000000e+00  -1.799180e+00 2.387556e+00 0.000000e+00  -1.939075e+00 2.701548e+00 0.000000e+00  -6.725219e-01 3.248140e+00 0.000000e+00  -8.739077e-01 2.725687e+00 0.000000e+00  -1.004672e+00 2.346803e+00 0.000000e+00  -1.030224e+00 3.370109e+00 0.000000e+00  -1.359567e+00 3.441893e+00 0.000000e+00  -1.452551e+00 2.690285e+00 0.000000e+00  -1.620914e+00 3.165385e+00 0.000000e+00  -1.815103e+00 2.912236e+00 0.000000e+00  -1.303134e-01 3.131159e-01 0.000000e+00  -6.548372e-02 0.000000e+00 0.000000e+00  -1.982041e-01 6.188219e-01 0.000000e+00  -2.700705e-01 8.977474e-01 0.000000e+00  -1.866937e-01 3.083979e-01 0.000000e+00  -1.829257e-01 0.000000e+00 0.000000e+00  -2.346021e-01 3.004547e-01 0.000000e+00  -5.467500e-01 1.620749e+00 0.000000e+00  -6.562465e-01 1.834328e+00 0.000000e+00  -4.385625e-01 1.388353e+00 0.000000e+00  -3.532828e-01 1.157786e+00 0.000000e+00  -4.629779e-01 1.351506e+00 0.000000e+00  -4.615774e-01 1.306151e+00 0.000000e+00  -4.032130e-01 1.085499e+00 0.000000e+00  -3.138912e-01 2.737677e-01 0.000000e+00  -3.157253e-01 2.646921e-01 0.000000e+00  -3.083136e-01 0.000000e+00 0.000000e+00  -3.308909e-01 5.465167e-01 0.000000e+00  -3.608629e-01 7.898558e-01 0.000000e+00  -3.601424e-01 8.173042e-01 0.000000e+00  -2.994097e-01 2.827994e-01 0.000000e+00  -2.676414e-01 0.000000e+00 0.000000e+00  -2.726707e-01 2.917549e-01 0.000000e+00  -3.141859e-01 8.714304e-01 0.000000e+00  -3.441969e-01 8.441607e-01 0.000000e+00  -2.879647e-01 5.826323e-01 0.000000e+00  -5.670439e-02 2.196490e-01 0.000000e+00  -5.599924e-02 0.000000e+00 0.000000e+00  0.000000e+00 2.187530e-01 0.000000e+00  -1.118245e-01 2.222087e-01 0.000000e+00  -1.615795e-01 0.000000e+00 0.000000e+00  -1.637369e-01 2.263794e-01 0.000000e+00  -5.877339e-02 4.367781e-01 0.000000e+00  0.000000e+00 6.461409e-01 0.000000e+00  -6.214650e-02 6.488161e-01 0.000000e+00  -7.850555e-02 1.227991e+00 0.000000e+00  -8.511130e-02 1.393256e+00 0.000000e+00  0.000000e+00 1.387019e+00 0.000000e+00  -1.435179e-01 1.060590e+00 0.000000e+00  -2.127445e-01 1.083072e+00 0.000000e+00  -1.950470e-01 8.813900e-01 0.000000e+00  -7.225150e-02 1.047092e+00 0.000000e+00  0.000000e+00 1.042557e+00 0.000000e+00  -6.670439e-02 8.531426e-01 0.000000e+00  -2.831955e-01 2.470053e-01 0.000000e+00  -3.051844e-01 2.556828e-01 0.000000e+00  -3.001446e-01 0.000000e+00 0.000000e+00  -2.622554e-01 4.760685e-01 0.000000e+00  -2.807904e-01 7.091560e-01 0.000000e+00  -2.339274e-01 6.872447e-01 0.000000e+00  -2.511659e-01 2.390116e-01 0.000000e+00  -2.474708e-01 0.000000e+00 0.000000e+00  -2.107625e-01 2.320444e-01 0.000000e+00  -1.806720e-01 6.695750e-01 0.000000e+00  -1.701430e-01 4.503838e-01 0.000000e+00  -1.228682e-01 6.566710e-01 0.000000e+00  -1.195273e-01 1.980914e+00 0.000000e+00  0.000000e+00 1.972642e+00 0.000000e+00  -2.373787e-01 1.982911e+00 0.000000e+00  -3.416672e-01 1.978557e+00 0.000000e+00  -1.178038e-01 1.961948e+00 0.000000e+00  0.000000e+00 1.954985e+00 0.000000e+00  -1.138519e-01 1.921324e+00 0.000000e+00  -6.037239e-01 1.951213e+00 0.000000e+00  -6.793491e-01 1.937334e+00 0.000000e+00  -5.169546e-01 1.956787e+00 0.000000e+00  -4.386696e-01 1.972275e+00 0.000000e+00  -4.944628e-01 1.853235e+00 0.000000e+00  -4.619319e-01 1.717076e+00 0.000000e+00  -3.933136e-01 1.780628e+00 0.000000e+00  -9.796964e-02 1.668008e+00 0.000000e+00  -9.169699e-02 1.540555e+00 0.000000e+00  0.000000e+00 1.660766e+00 0.000000e+00  -1.960141e-01 1.689861e+00 0.000000e+00  -2.750763e-01 1.596445e+00 0.000000e+00  -2.943035e-01 1.726980e+00 0.000000e+00  -1.037890e-01 1.774338e+00 0.000000e+00  0.000000e+00 1.851495e+00 0.000000e+00  -1.091159e-01 1.858857e+00 0.000000e+00  -3.279196e-01 1.918396e+00 0.000000e+00  -3.116652e-01 1.834245e+00 0.000000e+00  -2.183999e-01 1.881016e+00 0.000000e+00  -5.863414e-01 1.725038e+00 0.000000e+00  -5.030631e-01 1.493103e+00 0.000000e+00  -4.361319e-01 1.253990e+00 0.000000e+00  -5.044393e-01 1.628675e+00 0.000000e+00  -4.211618e-01 1.550515e+00 0.000000e+00  -1.699148e-01 1.412021e+00 0.000000e+00  -2.328849e-01 1.271618e+00 0.000000e+00  -2.787023e-01 1.114467e+00 0.000000e+00  -2.541787e-01 1.443805e+00 0.000000e+00  -3.378522e-01 1.489504e+00 0.000000e+00  -3.204817e-01 5.100415e-01 0.000000e+00  -3.466207e-01 7.618398e-01 0.000000e+00  -3.846445e-01 1.010054e+00 0.000000e+00  -3.191432e-01 7.344408e-01 0.000000e+00  -3.067428e-01 9.361071e-01 0.000000e+00  -3.935473e-01 1.201769e+00 0.000000e+00  -3.397753e-01 1.154401e+00 0.000000e+00  -3.787887e-01 1.360762e+00 0.000000e+00  -1.368120e-01 5.058200e-01 0.000000e+00  -1.318847e-01 2.631219e-01 0.000000e+00  -1.479827e-01 7.227117e-01 0.000000e+00  -1.554924e-01 9.092070e-01 0.000000e+00  -1.864997e-01 5.517025e-01 0.000000e+00  -2.397848e-01 4.546568e-01 0.000000e+00  -2.256196e-01 5.843091e-01 0.000000e+00  -6.981403e-01 1.364376e+00 0.000000e+00  -1.098341e+00 1.534763e+00 0.000000e+00  -3.454900e-01 1.213722e+00 0.000000e+00  -1.744810e-01 1.073885e+00 0.000000e+00  -3.590304e-01 1.171560e+00 0.000000e+00  -3.759088e-01 1.148102e+00 0.000000e+00  -2.332109e-01 1.027748e+00 0.000000e+00  -3.187256e-01 1.129882e+00 0.000000e+00  -4.233694e-01 1.506355e+00 0.000000e+00  -5.534360e-01 1.536900e+00 0.000000e+00  -2.327174e-01 9.137455e-01 0.000000e+00  -2.210868e-01 1.043308e+00 0.000000e+00  -2.156847e-01 9.150671e-01 0.000000e+00  -2.705644e-01 7.885392e-01 0.000000e+00  -3.183710e-01 6.983824e-01 0.000000e+00  -2.554216e-01 6.162759e-01 0.000000e+00  -1.761708e-01 8.952344e-01 0.000000e+00  -2.016996e-01 8.863849e-01 0.000000e+00  -2.120635e-01 7.314320e-01 0.000000e+00  -2.263251e-01 1.928406e+00 0.000000e+00  -1.130836e-01 1.914829e+00 0.000000e+00  -3.418569e-01 1.950479e+00 0.000000e+00  -4.752546e-01 1.979238e+00 0.000000e+00  -3.431728e-01 1.887688e+00 0.000000e+00  -3.268683e-01 1.811980e+00 0.000000e+00  -4.386856e-01 1.836436e+00 0.000000e+00  -1.401442e+00 1.857820e+00 0.000000e+00  -1.375789e+00 1.708015e+00 0.000000e+00  -1.148643e+00 1.959530e+00 0.000000e+00  -7.464865e-01 1.998079e+00 0.000000e+00  -1.232266e+00 1.750901e+00 0.000000e+00  -1.066067e+00 1.535315e+00 0.000000e+00  -1.057043e+00 1.676841e+00 0.000000e+00  -6.474057e-01 1.527369e+00 0.000000e+00  -6.453860e-01 1.418784e+00 0.000000e+00  -5.899892e-01 1.430887e+00 0.000000e+00  -7.508113e-01 1.584786e+00 0.000000e+00  -7.952140e-01 1.492787e+00 0.000000e+00  -8.907386e-01 1.627251e+00 0.000000e+00  -6.055488e-01 1.650931e+00 0.000000e+00  -4.773384e-01 1.656441e+00 0.000000e+00  -5.035446e-01 1.767521e+00 0.000000e+00  -6.841466e-01 1.923341e+00 0.000000e+00  -8.554459e-01 1.792742e+00 0.000000e+00  -5.868153e-01 1.850538e+00 0.000000e+00  -9.686357e-01 3.220308e-01 0.000000e+00  -1.003633e+00 1.548086e