<?xml version="1.0"?>
<VTKFile type="UnstructuredGrid"  version="0.1"  >
<UnstructuredGrid>
<Piece  NumberOfPoints="3201" NumberOfCells="6144">
<Points>
<DataArray  type="Float32"  NumberOfComponents="3"  format="ascii">0 0 0  1 0 0  1 1 0  0 1 0  -1 1 0  -1 0 0  -1 -1 0  0 -1 0  0.5 0.5 0  0 0.5 0  0.5 0 0  0.5 1 0  1 0.5 0  -0.5 0.5 0  -0.5 0 0  -1 0.5 0  -0.5 1 0  -0.5 -0.5 0  0 -0.5 0  -0.5 -1 0  -1 -0.5 0  0.25 0.25 0  0.25 0 0  0 0.25 0  0.5 0.25 0  0.75 0 0  0.75 0.25 0  0.25 0.5 0  0 0.75 0  0.25 0.75 0  0.75 0.5 0  1 0.25 0  0.75 0.75 0  1 0.75 0  0.75 1 0  0.5 0.75 0  0.25 1 0  -0.25 0.25 0  -0.25 0 0  -0.25 0.5 0  -0.25 0.75 0  -0.5 0.25 0  -0.75 0 0  -0.75 0.25 0  -0.5 0.75 0  -0.25 1 0  -0.75 0.75 0  -0.75 1 0  -1 0.75 0  -0.75 0.5 0  -1 0.25 0  -0.25 -0.25 0  0 -0.25 0  -0.5 -0.25 0  -0.75 -0.25 0  -0.25 -0.5 0  0 -0.75 0  -0.25 -0.75 0  -0.75 -0.5 0  -1 -0.25 0  -0.75 -0.75 0  -1 -0.75 0  -0.75 -1 0  -0.5 -0.75 0  -0.25 -1 0  0.125 0.125 0  0 0.125 0  0.125 0 0  0.125 0.25 0  0 0.375 0  0.125 0.375 0  0.25 0.125 0  0.375 0 0  0.375 0.125 0  0.75 0.125 0  0.875 0.125 0  0.875 0 0  0.625 0.25 0  0.625 0.375 0  0.5 0.375 0  0.625 0.125 0  0.625 0 0  0.5 0.125 0  0.125 0.75 0  0.125 0.875 0  0 0.875 0  0.25 0.625 0  0.375 0.625 0  0.375 0.5 0  0.125 0.625 0  0 0.625 0  0.125 0.5 0  0.375 0.375 0  0.25 0.375 0  0.375 0.25 0  0.875 0.25 0  1 0.125 0  0.75 0.375 0  0.625 0.5 0  0.875 0.375 0  1 0.375 0  0.875 0.5 0  0.875 0.875 0  0.875 1 0  1 0.875 0  0.75 0.875 0  0.625 1 0  0.625 0.875 0  0.875 0.75 0  1 0.625 0  0.875 0.625 0  0.25 0.875 0  0.125 1 0  0.375 0.75 0  0.5 0.625 0  0.375 0.875 0  0.375 1 0  0.5 0.875 0  0.625 0.625 0  0.625 0.75 0  0.75 0.625 0  -0.125 0.125 0  -0.125 0 0  -0.125 0.25 0  -0.125 0.375 0  -0.25 0.125 0  -0.375 0 0  -0.375 0.125 0  -0.125 0.75 0  -0.125 0.875 0  -0.125 0.625 0  -0.125 0.5 0  -0.25 0.625 0  -0.375 0.625 0  -0.375 0.5 0  -0.75 0.125 0  -0.875 0.125 0  -0.875 0 0  -0.625 0.25 0  -0.625 0.375 0  -0.5 0.375 0  -0.625 0.125 0  -0.625 0 0  -0.5 0.125 0  -0.25 0.375 0  -0.375 0.375 0  -0.375 0.25 0  -0.25 0.875 0  -0.125 1 0  -0.375 0.75 0  -0.5 0.625 0  -0.375 0.875 0  -0.375 1 0  -0.5 0.875 0  -0.875 0.875 0  -1 0.875 0  -0.875 1 0  -0.875 0.75 0  -1 0.625 0  -0.875 0.625 0  -0.75 0.875 0  -0.625 1 0  -0.625 0.875 0  -0.875 0.25 0  -1 0.125 0  -0.75 0.375 0  -0.625 0.5 0  -0.875 0.375 0  -1 0.375 0  -0.875 0.5 0  -0.625 0.625 0  -0.75 0.625 0  -0.625 0.75 0  -0.125 -0.125 0  0 -0.125 0  -0.25 -0.125 0  -0.375 -0.125 0  -0.125 -0.25 0  0 -0.375 0  -0.125 -0.375 0  -0.75 -0.125 0  -0.875 -0.125 0  -0.625 -0.125 0  -0.5 -0.125 0  -0.625 -0.25 0  -0.625 -0.375 0  -0.5 -0.375 0  -0.125 -0.75 0  -0.125 -0.875 0  0 -0.875 0  -0.25 -0.625 0  -0.375 -0.625 0  -0.375 -0.5 0  -0.125 -0.625 0  0 -0.625 0  -0.125 -0.5 0  -0.375 -0.25 0  -0.375 -0.375 0  -0.25 -0.375 0  -0.875 -0.25 0  -1 -0.125 0  -0.75 -0.375 0  -0.625 -0.5 0  -0.875 -0.375 0  -1 -0.375 0  -0.875 -0.5 0  -0.875 -0.875 0  -0.875 -1 0  -1 -0.875 0  -0.75 -0.875 0  -0.625 -1 0  -0.625 -0.875 0  -0.875 -0.75 0  -1 -0.625 0  -0.875 -0.625 0  -0.25 -0.875 0  -0.125 -1 0  -0.375 -0.75 0  -0.5 -0.625 0  -0.375 -0.875 0  -0.375 -1 0  -0.5 -0.875 0  -0.625 -0.625 0  -0.625 -0.75 0  -0.75 -0.625 0  0.0625 0.0625 0  0.0625 0 0  0 0.0625 0  0.125 0.0625 0  0.1875 0 0  0.1875 0.0625 0  0.0625 0.125 0  0 0.1875 0  0.0625 0.1875 0  0.0625 0.375 0  0.0625 0.4375 0  0 0.4375 0  0.125 0.3125 0  0.1875 0.3125 0  0.1875 0.25 0  0.0625 0.3125 0  0 0.3125 0  0.0625 0.25 0  0.375 0.0625 0  0.4375 0.0625 0  0.4375 0 0  0.3125 0.125 0  0.3125 0.1875 0  0.25 0.1875 0  0.3125 0.0625 0  0.3125 0 0  0.25 0.0625 0  0.1875 0.1875 0  0.1875 0.125 0  0.125 0.1875 0  0.875 0.0625 0  0.9375 0 0  0.9375 0.0625 0  0.8125 0.0625 0  0.8125 0 0  0.75 0.0625 0  0.8125 0.125 0  0.8125 0.1875 0  0.75 0.1875 0  0.5625 0.375 0  0.5 0.4375 0  0.5625 0.4375 0  0.5625 0.3125 0  0.5 0.3125 0  0.5625 0.25 0  0.625 0.3125 0  0.6875 0.3125 0  0.6875 0.25 0  0.5625 0.0625 0  0.5 0.0625 0  0.5625 0 0  0.5625 0.125 0  0.5 0.1875 0  0.5625 0.1875 0  0.625 0.0625 0  0.6875 0 0  0.6875 0.0625 0  0.625 0.1875 0  0.6875 0.125 0  0.6875 0.1875 0  0.0625 0.875 0  0 0.9375 0  0.0625 0.9375 0  0.0625 0.8125 0  0 0.8125 0  0.0625 0.75 0  0.125 0.8125 0  0.1875 0.8125 0  0.1875 0.75 0  0.375 0.5625 0  0.4375 0.5 0  0.4375 0.5625 0  0.3125 0.5625 0  0.3125 0.5 0  0.25 0.5625 0  0.3125 0.625 0  0.3125 0.6875 0  0.25 0.6875 0  0.0625 0.5625 0  0.0625 0.5 0  0 0.5625 0  0.125 0.5625 0  0.1875 0.5 0  0.1875 0.5625 0  0.0625 0.625 0  0 0.6875 0  0.0625 0.6875 0  0.1875 0.625 0  0.125 0.6875 0  0.1875 0.6875 0  0.4375 0.4375 0  0.4375 0.375 0  0.4375 0.3125 0  0.375 0.4375 0  0.3125 0.4375 0  0.125 0.4375 0  0.1875 0.375 0  0.25 0.3125 0  0.1875 0.4375 0  0.25 0.4375 0  0.4375 0.125 0  0.375 0.1875 0  0.3125 0.25 0  0.4375 0.1875 0  0.4375 0.25 0  0.3125 0.3125 0  0.375 0.3125 0  0.3125 0.375 0  0.9375 0.125 0  1 0.0625 0  0.875 0.1875 0  0.8125 0.25 0  0.9375 0.1875 0  1 0.1875 0  0.9375 0.25 0  0.625 0.4375 0  0.5625 0.5 0  0.6875 0.375 0  0.75 0.3125 0  0.6875 0.4375 0  0.6875 0.5 0  0.75 0.4375 0  0.9375 0.4375 0  0.9375 0.5 0  1 0.4375 0  0.875 0.4375 0  0.8125 0.5 0  0.8125 0.4375 0  0.9375 0.375 0  1 0.3125 0  0.9375 0.3125 0  0.8125 0.3125 0  0.8125 0.375 0  0.875 0.3125 0  0.9375 0.9375 0  1 0.9375 0  0.9375 1 0  0.9375 0.875 0  1 0.8125 0  0.9375 0.8125 0  0.875 0.9375 0  0.8125 1 0  0.8125 0.9375 0  0.625 0.9375 0  0.5625 0.9375 0  0.5625 1 0  0.6875 0.875 0  0.6875 0.8125 0  0.75 0.8125 0  0.6875 0.9375 0  0.6875 1 0  0.75 0.9375 0  0.9375 0.625 0  0.9375 0.5625 0  1 0.5625 0  0.875 0.6875 0  0.8125 0.6875 0  0.8125 0.75 0  0.9375 0.6875 0  1 0.6875 0  0.9375 0.75 0  0.8125 0.8125 0  0.875 0.8125 0  0.8125 0.875 0  0.125 0.9375 0  0.0625 1 0  0.1875 0.875 0  0.25 0.8125 0  0.1875 0.9375 0  0.1875 1 0  0.25 0.9375 0  0.4375 0.625 0  0.5 0.5625 0  0.375 0.6875 0  0.3125 0.75 0  0.4375 0.6875 0  0.5 0.6875 0  0.4375 0.75 0  0.4375 0.9375 0  0.5 0.9375 0  0.4375 1 0  0.4375 0.875 0  0.5 0.8125 0  0.4375 0.8125 0  0.375 0.9375 0  0.3125 1 0  0.3125 0.9375 0  0.3125 0.8125 0  0.375 0.8125 0  0.3125 0.875 0  0.5625 0.5625 0  0.625 0.5625 0  0.6875 0.5625 0  0.5625 0.625 0  0.5625 0.6875 0  0.5625 0.875 0  0.625 0.8125 0  0.6875 0.75 0  0.5625 0.8125 0  0.5625 0.75 0  0.875 0.5625 0  0.8125 0.5625 0  0.75 0.5625 0  0.8125 0.625 0  0.75 0.6875 0  0.6875 0.625 0  0.6875 0.6875 0  0.625 0.6875 0  -0.0625 0.0625 0  -0.0625 0 0  -0.0625 0.125 0  -0.0625 0.1875 0  -0.125 0.0625 0  -0.1875 0 0  -0.1875 0.0625 0  -0.0625 0.375 0  -0.0625 0.4375 0  -0.0625 0.3125 0  -0.0625 0.25 0  -0.125 0.3125 0  -0.1875 0.3125 0  -0.1875 0.25 0  -0.375 0.0625 0  -0.4375 0.0625 0  -0.4375 0 0  -0.3125 0.125 0  -0.3125 0.1875 0  -0.25 0.1875 0  -0.3125 0.0625 0  -0.3125 0 0  -0.25 0.0625 0  -0.125 0.1875 0  -0.1875 0.1875 0  -0.1875 0.125 0  -0.0625 0.875 0  -0.0625 0.9375 0  -0.0625 0.8125 0  -0.0625 0.75 0  -0.125 0.8125 0  -0.1875 0.8125 0  -0.1875 0.75 0  -0.0625 0.5625 0  -0.0625 0.5 0  -0.0625 0.625 0  -0.0625 0.6875 0  -0.125 0.5625 0  -0.1875 0.5 0  -0.1875 0.5625 0  -0.375 0.5625 0  -0.4375 0.5 0  -0.4375 0.5625 0  -0.3125 0.5625 0  -0.3125 0.5 0  -0.25 0.5625 0  -0.3125 0.625 0  -0.3125 0.6875 0  -0.25 0.6875 0  -0.125 0.6875 0  -0.1875 0.625 0  -0.1875 0.6875 0  -0.875 0.0625 0  -0.9375 0 0  -0.9375 0.0625 0  -0.8125 0.0625 0  -0.8125 0 0  -0.75 0.0625 0  -0.8125 0.125 0  -0.8125 0.1875 0  -0.75 0.1875 0  -0.5625 0.375 0  -0.5 0.4375 0  -0.5625 0.4375 0  -0.5625 0.3125 0  -0.5 0.3125 0  -0.5625 0.25 0  -0.625 0.3125 0  -0.6875 0.3125 0  -0.6875 0.25 0  -0.5625 0.0625 0  -0.5 0.0625 0  -0.5625 0 0  -0.5625 0.125 0  -0.5 0.1875 0  -0.5625 0.1875 0  -0.625 0.0625 0  -0.6875 0 0  -0.6875 0.0625 0  -0.625 0.1875 0  -0.6875 0.125 0  -0.6875 0.1875 0  -0.125 0.4375 0  -0.1875 0.375 0  -0.25 0.3125 0  -0.1875 0.4375 0  -0.25 0.4375 0  -0.4375 0.4375 0  -0.375 0.4375 0  -0.3125 0.4375 0  -0.4375 0.375 0  -0.4375 0.3125 0  -0.4375 0.125 0  -0.375 0.1875 0  -0.3125 0.25 0  -0.4375 0.1875 0  -0.4375 0.25 0  -0.3125 0.3125 0  -0.3125 0.375 0  -0.375 0.3125 0  -0.125 0.9375 0  -0.0625 1 0  -0.1875 0.875 0  -0.25 0.8125 0  -0.1875 0.9375 0  -0.1875 1 0  -0.25 0.9375 0  -0.4375 0.625 0  -0.5 0.5625 0  -0.375 0.6875 0  -0.3125 0.75 0  -0.4375 0.6875 0  -0.5 0.6875 0  -0.4375 0.75 0  -0.4375 0.9375 0  -0.5 0.9375 0  -0.4375 1 0  -0.4375 0.875 0  -0.5 0.8125 0  -0.4375 0.8125 0  -0.375 0.9375 0  -0.3125 1 0  -0.3125 0.9375 0  -0.3125 0.8125 0  -0.375 0.8125 0  -0.3125 0.875 0  -0.9375 0.9375 0  -0.9375 1 0  -1 0.9375 0  -0.875 0.9375 0  -0.8125 1 0  -0.8125 0.9375 0  -0.9375 0.875 0  -1 0.8125 0  -0.9375 0.8125 0  -0.9375 0.625 0  -0.9375 0.5625 0  -1 0.5625 0  -0.875 0.6875 0  -0.8125 0.6875 0  -0.8125 0.75 0  -0.9375 0.6875 0  -1 0.6875 0  -0.9375 0.75 0  -0.625 0.9375 0  -0.5625 0.9375 0  -0.5625 1 0  -0.6875 0.875 0  -0.6875 0.8125 0  -0.75 0.8125 0  -0.6875 0.9375 0  -0.6875 1 0  -0.75 0.9375 0  -0.8125 0.8125 0  -0.8125 0.875 0  -0.875 0.8125 0  -0.9375 0.125 0  -1 0.0625 0  -0.875 0.1875 0  -0.8125 0.25 0  -0.9375 0.1875 0  -1 0.1875 0  -0.9375 0.25 0  -0.625 0.4375 0  -0.5625 0.5 0  -0.6875 0.375 0  -0.75 0.3125 0  -0.6875 0.4375 0  -0.6875 0.5 0  -0.75 0.4375 0  -0.9375 0.4375 0  -0.9375 0.5 0  -1 0.4375 0  -0.875 0.4375 0  -0.8125 0.5 0  -0.8125 0.4375 0  -0.9375 0.375 0  -1 0.3125 0  -0.9375 0.3125 0  -0.8125 0.3125 0  -0.8125 0.375 0  -0.875 0.3125 0  -0.5625 0.5625 0  -0.5625 0.625 0  -0.5625 0.6875 0  -0.625 0.5625 0  -0.6875 0.5625 0  -0.875 0.5625 0  -0.8125 0.625 0  -0.75 0.6875 0  -0.8125 0.5625 0  -0.75 0.5625 0  -0.5625 0.875 0  -0.5625 0.8125 0  -0.5625 0.75 0  -0.625 0.8125 0  -0.6875 0.75 0  -0.625 0.6875 0  -0.6875 0.6875 0  -0.6875 0.625 0  -0.0625 -0.0625 0  0 -0.0625 0  -0.125 -0.0625 0  -0.1875 -0.0625 0  -0.0625 -0.125 0  0 -0.1875 0  -0.0625 -0.1875 0  -0.375 -0.0625 0  -0.4375 -0.0625 0  -0.3125 -0.0625 0  -0.25 -0.0625 0  -0.3125 -0.125 0  -0.3125 -0.1875 0  -0.25 -0.1875 0 
[...]
<PointData  Vectors="u"> 
<DataArray  type="Float32"  Name="u"  NumberOfComponents="3" format="ascii">0.000000e+00 0.000000e+00 0.000000e+00  0.000000e+00 0.000000e+00 0.000000e+00  0.000000e+00 0.000000e+00 0.000000e+00  0.000000e+00 1.613735e+00 0.000000e+00  0.000000e+00 0.000000e+00 0.000000e+00  -6.439687e-01 0.000000e+00 0.000000e+00  0.000000e+00 0.000000e+00 0.000000e+00  0.000000e+00 0.000000e+00 0.000000e+00  -4.486432e-01 1.566876e+00 0.000000e+00  -1.346985e+00 1.549834e+00 0.000000e+00  0.000000e+00 3.304362e+00 0.000000e+00  0.000000e+00 1.168253e+00 0.000000e+00  -1.184563e-01 0.000000e+00 0.000000e+00  -4.280099e-01 1.127944e+00 0.000000e+00  -3.841545e-01 1.652181e+00 0.000000e+00  -4.037016e-01 0.000000e+00 0.000000e+00  0.000000e+00 1.058028e+00 0.000000e+00  -8.766530e-01 4.389322e-01 0.000000e+00  -2.693970e+00 0.000000e+00 0.000000e+00  0.000000e+00 1.102245e-01 0.000000e+00  -5.221580e-01 0.000000e+00 0.000000e+00  -5.165865e-01 1.411675e+00 0.000000e+00  0.000000e+00 6.772517e-01 0.000000e+00  1.431468e-02 8.717928e-01 0.000000e+00  -1.077524e+00 3.081001e+00 0.000000e+00  0.000000e+00 9.049288e-01 0.000000e+00  -1.159125e-01 8.145784e-01 0.000000e+00  -1.697514e+00 2.305062e+00 0.000000e+00  -2.868640e-01 1.703556e+00 0.000000e+00  -2.188491e-01 1.601352e+00 0.000000e+00  -1.535474e-01 7.239009e-01 0.000000e+00  -8.700992e-02 0.000000e+00 0.000000e+00  -1.002784e-01 6.591050e-01 0.000000e+00  -8.078000e-02 0.000000e+00 0.000000e+00  0.000000e+00 6.318318e-01 0.000000e+00  -1.489978e-01 1.226898e+00 0.000000e+00  0.000000e+00 1.518188e+00 0.000000e+00  -2.859318e-02 8.536839e-01 0.000000e+00  -1.019851e-02 3.386259e-01 0.000000e+00  -7.226998e-01 1.267251e+00 0.000000e+00  -2.553712e-01 1.501061e+00 0.000000e+00  -2.183346e-01 1.327205e+00 0.000000e+00  -6.693158e-01 4.524644e-01 0.000000e+00  -5.665678e-01 5.363121e-01 0.000000e+00  -2.271675e-01 1.083204e+00 0.000000e+00  0.000000e+00 1.440223e+00 0.000000e+00  -2.159073e-01 5.600299e-01 0.000000e+00  0.000000e+00 5.542151e-01 0.000000e+00  -2.121828e-01 0.000000e+00 0.000000e+00  -4.113894e-01 5.634274e-01 0.000000e+00  -5.544719e-01 0.000000e+00 0.000000e+00  -5.451797e-01 5.579911e-01 0.000000e+00  2.862935e-02 0.000000e+00 0.000000e+00  -1.295859e+00 1.753796e+00 0.000000e+00  -6.824803e-01 2.782664e-01 0.000000e+00  -2.420214e+00 1.037811e+00 0.000000e+00  -5.737281e-01 0.000000e+00 0.000000e+00  -4.742203e-01 1.002914e-01 0.000000e+00  -5.649368e-01 1.604736e-01 0.000000e+00  -6.414818e-01 0.000000e+00 0.000000e+00  -3.161857e-01 9.907518e-02 0.000000e+00  -2.929628e-01 0.000000e+00 0.000000e+00  0.000000e+00 7.761666e-02 0.000000e+00  -3.761653e-01 1.436941e-01 0.000000e+00  0.000000e+00 7.796508e-02 0.000000e+00  5.231520e-03 6.936149e-01 0.000000e+00  6.041472e-03 6.010621e-01 0.000000e+00  0.000000e+00 5.867245e-01 0.000000e+00  -4.172310e-02 9.127263e-01 0.000000e+00  -5.687651e-01 1.178107e+00 0.000000e+00  -9.182537e-01 1.482194e+00 0.000000e+00  -3.520042e-02 7.936063e-01 0.000000e+00  0.000000e+00 1.831676e+00 0.000000e+00  -4.446949e-01 2.088256e+00 0.000000e+00  -6.871758e-02 9.000848e-01 0.000000e+00  -5.253495e-02 4.438005e-01 0.000000e+00  0.000000e+00 4.575595e-01 0.000000e+00  -4.096969e-01 1.801690e+00 0.000000e+00  -2.201980e-01 1.166529e+00 0.000000e+00  -1.028322e+00 2.421290e+00 0.000000e+00  -3.299706e-01 2.398027e+00 0.000000e+00  0.000000e+00 2.624633e+00 0.000000e+00  -6.206126e-01 3.294274e+00 0.000000e+00  -2.768868e-01 1.693452e+00 0.000000e+00  -1.333384e-01 1.623075e+00 0.000000e+00  -1.447495e-01 1.635483e+00 0.000000e+00  -7.676157e-01 1.871895e+00 0.000000e+00  -2.959721e-01 1.553113e+00 0.000000e+00  -1.233376e+00 2.265638e+00 0.000000e+00  -1.086222e+00 1.902213e+00 0.000000e+00  -1.070991e+00 1.746999e+00 0.000000e+00  -1.641835e+00 1.924136e+00 0.000000e+00  -1.607973e+00 2.768391e+00 0.000000e+00  -1.433100e+00 2.133898e+00 0.000000e+00  -1.110712e+00 2.591690e+00 0.000000e+00  -9.379080e-02 4.127812e-01 0.000000e+00  -4.803818e-02 0.000000e+00 0.000000e+00  -1.434948e-01 7.596354e-01 0.000000e+00  -2.112497e-01 1.077770e+00 0.000000e+00  -1.193740e-01 3.863073e-01 0.000000e+00  -1.114293e-01 0.000000e+00 0.000000e+00  -1.267824e-01 3.660076e-01 0.000000e+00  -4.551759e-02 3.251060e-01 0.000000e+00  0.000000e+00 3.217766e-01 0.000000e+00  -4.312855e-02 0.000000e+00 0.000000e+00  -5.247590e-02 6.388012e-01 0.000000e+00  0.000000e+00 9.180419e-01 0.000000e+00  -6.313434e-02 9.289563e-01 0.000000e+00  -8.566570e-02 3.346280e-01 0.000000e+00  -1.074635e-01 0.000000e+00 0.000000e+00  -1.146548e-01 3.489206e-01 0.000000e+00  -1.112663e-01 1.538718e+00 0.000000e+00  0.000000e+00 1.600522e+00 0.000000e+00  -1.764432e-01 1.440926e+00 0.000000e+00  -2.257733e-01 1.308920e+00 0.000000e+00  -9.149380e-02 1.388981e+00 0.000000e+00  0.000000e+00 1.371441e+00 0.000000e+00  -7.605398e-02 1.182759e+00 0.000000e+00  -1.782569e-01 1.016786e+00 0.000000e+00  -1.232911e-01 9.618781e-01 0.000000e+00  -1.373456e-01 6.899825e-01 0.000000e+00  1.615476e-03 5.757413e-01 0.000000e+00  -5.081330e-03 2.933623e-01 0.000000e+00  1.217233e-03 8.444855e-01 0.000000e+00  -4.472054e-01 1.053166e+00 0.000000e+00  2.716127e-03 5.823283e-01 0.000000e+00  -9.987866e-02 9.158380e-01 0.000000e+00  1.388455e-02 1.000933e+00 0.000000e+00  -2.891615e-01 1.635103e+00 0.000000e+00  -1.413968e-01 1.577082e+00 0.000000e+00  -8.220295e-01 1.591251e+00 0.000000e+00  -1.026330e+00 1.330697e+00 0.000000e+00  -5.290230e-01 1.489217e+00 0.000000e+00  -3.538005e-01 1.354854e+00 0.000000e+00  -5.004918e-01 1.268116e+00 0.000000e+00  -6.240120e-01 5.171960e-01 0.000000e+00  -6.126152e-01 2.542392e-01 0.000000e+00  -6.503092e-01 2.287798e-01 0.000000e+00  -4.924198e-01 9.662300e-01 0.000000e+00  -5.008233e-01 8.444489e-01 0.000000e+00  -3.783940e-01 1.182853e+00 0.000000e+00  -5.005244e-01 1.170898e+00 0.000000e+00  -6.302514e-01 1.312316e+00 0.000000e+00  -1.862782e-01 1.493590e+00 0.000000e+00  -3.684568e-01 1.049878e+00 0.000000e+00  -3.121092e-01 1.179973e+00 0.000000e+00  -4.726552e-02 1.115633e+00 0.000000e+00  -1.301203e-01 1.455418e+00 0.000000e+00  0.000000e+00 1.557989e+00 0.000000e+00  -2.373618e-01 1.312047e+00 0.000000e+00  -3.327128e-01 1.108733e+00 0.000000e+00  -1.212502e-01 1.280510e+00 0.000000e+00  0.000000e+00 1.269793e+00 0.000000e+00  -1.154646e-01 1.064648e+00 0.000000e+00  -1.078727e-01 2.806084e-01 0.000000e+00  -1.073953e-01 0.000000e+00 0.000000e+00  0.000000e+00 2.799699e-01 0.000000e+00  -2.131233e-01 2.820571e-01 0.000000e+00  -3.117916e-01 0.000000e+00 0.000000e+00  -3.132071e-01 2.830932e-01 0.000000e+00  -1.092975e-01 5.558997e-01 0.000000e+00  0.000000e+00 8.162238e-01 0.000000e+00  -1.117356e-01 8.197979e-01 0.000000e+00  -5.576716e-01 2.679560e-01 0.000000e+00  -6.083618e-01 0.000000e+00 0.000000e+00  -4.954761e-01 5.543566e-01 0.000000e+00  -4.201283e-01 8.456453e-01 0.000000e+00  -4.879453e-01 2.771127e-01 0.000000e+00  -4.854128e-01 0.000000e+00 0.000000e+00  -4.056505e-01 2.819633e-01 0.000000e+00  -3.239420e-01 8.403237e-01 0.000000e+00  -3.173490e-01 5.639512e-01 0.000000e+00  -2.205217e-01 8.292062e-01 0.000000e+00  6.846996e-03 1.178736e-01 0.000000e+00  1.208294e-02 0.000000e+00 0.000000e+00  -3.248429e-02 2.112781e-01 0.000000e+00  -4.308104e-01 1.087323e+00 0.000000e+00  -4.050586e-02 6.824080e-02 0.000000e+00  -1.137530e+00 0.000000e+00 0.000000e+00  -1.365459e+00 4.290282e-01 0.000000e+00  -6.927296e-01 3.828888e-01 0.000000e+00  -6.651501e-01 1.895613e-01 0.000000e+00  -8.304950e-01 1.227129e+00 0.000000e+00  -8.068907e-01 1.800685e+00 0.000000e+00  -9.021167e-01 8.354598e-01 0.000000e+00  -7.210213e-01 3.220802e-01 0.000000e+00  -1.406716e+00 1.238437e+00 0.000000e+00  -5.660483e-01 5.834913e-02 0.000000e+00  -2.747352e-01 4.599258e-02 0.000000e+00  -2.894990e-01 0.000000e+00 0.000000e+00  -1.296639e+00 3.826780e-01 0.000000e+00  -6.497726e-01 1.982589e-01 0.000000e+00  -1.733868e+00 9.975218e-01 0.000000e+00  -1.908251e+00 3.109622e-01 0.000000e+00  -2.141982e+00 0.000000e+00 0.000000e+00  -2.668164e+00 5.934398e-01 0.000000e+00  -1.157977e+00 1.476057e+00 0.000000e+00  -1.920082e+00 1.588417e+00 0.000000e+00  -1.801557e+00 1.084019e+00 0.000000e+00  -6.514624e-01 1.448252e-01 0.000000e+00  -6.564000e-01 0.000000e+00 0.000000e+00  -6.389709e-01 2.052787e-01 0.000000e+00  -6.313780e-01 2.321247e-01 0.000000e+00  -6.073193e-01 1.091947e-01 0.000000e+00  -5.968421e-01 0.000000e+00 0.000000e+00  -5.324330e-01 8.404436e-02 0.000000e+00  -1.533903e-01 4.449769e-02 0.000000e+00  0.000000e+00 4.180665e-02 0.000000e+00  -1.505238e-01 0.000000e+00 0.000000e+00  -1.617734e-01 8.290147e-02 0.000000e+00  0.000000e+00 1.018181e-01 0.000000e+00  -1.748700e-01 1.091583e-01 0.000000e+00  -2.987890e-01 5.257089e-02 0.000000e+00  -4.192551e-01 0.000000e+00 0.000000e+00  -4.278620e-01 6.582742e-02 0.000000e+00  -2.413867e-01 8.329997e-02 0.000000e+00  0.000000e+00 4.253342e-02 0.000000e+00  -4.138050e-01 1.288792e-01 0.000000e+00  -5.584862e-01 2.001865e-01 0.000000e+00  -2.127440e-01 1.084712e-01 0.000000e+00  0.000000e+00 1.016486e-01 0.000000e+00  -1.915186e-01 1.181105e-01 0.000000e+00  -5.021989e-01 1.764621e-01 0.000000e+00  -3.438128e-01 1.326718e-01 0.000000e+00  -4.546946e-01 1.260313e-01 0.000000e+00  2.105367e-03 5.288791e-01 0.000000e+00  0.000000e+00 4.472901e-01 0.000000e+00  7.324983e-04 4.158529e-01 0.000000e+00  2.345140e-03 6.188274e-01 0.000000e+00  0.000000e+00 6.437033e-01 0.000000e+00  2.968511e-03 6.598757e-01 0.000000e+00  6.889975e-03 6.482413e-01 0.000000e+00  1.440205e-02 7.433689e-01 0.000000e+00  1.638151e-02 7.648292e-01 0.000000e+00  -7.090087e-01 1.294108e+00 0.000000e+00  -1.205402e+00 1.533153e+00 0.000000e+00  -1.034138e+00 1.370745e+00 0.000000e+00  -3.924745e-01 1.172777e+00 0.000000e+00  -6.558520e-01 1.413379e+00 0.000000e+00  -2.206001e-01 1.057938e+00 0.000000e+00  -2.276737e-01 1.057068e+00 0.000000e+00  -1.535406e-01 1.006970e+00 0.000000e+00  1.948650e-02 8.797206e-01 0.000000e+00  -1.986701e-01 1.903604e+00 0.000000e+00  -2.892505e-01 2.771616e+00 0.000000e+00  0.000000e+00 2.727635e+00 0.000000e+00  -2.232095e-01 1.288758e+00 0.000000e+00  -4.805609e-01 1.604524e+00 0.000000e+00  -1.895295e-01 1.046506e+00 0.000000e+00  -7.903533e-02 1.086074e+00 0.000000e+00  0.000000e+00 1.018147e+00 0.000000e+00  8.630071e-04 6.781902e-01 0.000000e+00  -1.898298e-02 8.157251e-01 0.000000e+00  3.950281e-03 7.136230e-01 0.000000e+00  1.253244e-02 7.848280e-01 0.000000e+00  -2.727946e-02 4.547104e-01 0.000000e+00  0.000000e+00 2.276987e-01 0.000000e+00  -2.527811e-02 2.260834e-01 0.000000e+00  -3.137701e-02 6.910473e-01 0.000000e+00  0.000000e+00 6.888531e-01 0.000000e+00  -4.005504e-02 9.581618e-01 0.000000e+00  -5.871980e-02 6.693911e-01 0.000000e+00  -8.227928e-02 6.395531e-01 0.000000e+00  -9.185192e-02 8.383041e-01 0.000000e+00  -5.661574e-01 1.789531e+00 0.000000e+00  -7.653528e-01 1.967993e+00 0.000000e+00  -3.557862e-01 1.414083e+00 0.000000e+00  -7.326373e-01 2.230991e+00 0.000000e+00  -1.136472e+00 2.810102e+00 0.000000e+00  -7.787260e-01 2.627707e+00 0.000000e+00  -3.278666e-01 1.446455e+00 0.000000e+00  -1.511055e-01 9.690945e-01 0.000000e+00  -1.527874e-01 1.057210e+00 0.000000e+00  -2.739710e-01 3.247746e+00 0.000000e+00  -3.161152e-01 3.307471e+00 0.000000e+00  0.000000e+00 3.283925e+00 0.000000e+00  -5.178798e-01 3.135025e+00 0.000000e+00  -8.885109e-01 3.232330e+00 0.000000e+00  -6.981982e-01 2.931882e+00 0.000000e+00  -1.827755e-01 2.564106e+00 0.000000e+00  0.000000e+00 1.615363e+00 0.000000e+00  -8.491437e-02 1.566924e+00 0.000000e+00  -4.122031e-01 2.135511e+00 0.000000e+00  -1.420020e-01 1.421027e+00 0.000000e+00  -1.610868e-01 1.224227e+00 0.000000e+00  -1.414238e-01 1.638489e+00 0.000000e+00  -7.168815e-02 1.619013e+00 0.000000e+00  -6.984745e-02 1.621434e+00 0.000000e+00  -2.180223e-01 1.667693e+00 0.000000e+00  -2.191293e-01 1.663422e+00 0.000000e+00  -3.129034e-01 1.710868e+00 0.000000e+00  -2.029856e-01 1.651854e+00 0.000000e+00  -1.828116e-01 1.616963e+00 0.000000e+00  -2.370201e-01 1.655097e+00 0.000000e+00  -7.300406e-01 1.862938e+00 0.000000e+00  -8.302116e-01 1.971374e+00 0.000000e+00  -4.085425e-01 1.580895e+00 0.000000e+00  -1.075209e+00 2.064254e+00 0.000000e+00  -1.538014e+00 2.370118e+00 0.000000e+00  -1.340351e+00 2.132766e+00 0.000000e+00  -5.160620e-01 1.737085e+00 0.000000e+00  -2.398671e-01 1.572125e+00 0.000000e+00  -3.053447e-01 1.661924e+00 0.000000e+00  -1.477952e+00 1.824148e+00 0.000000e+00  -1.506508e+00 1.721249e+00 0.000000e+00  -1.366689e+00 1.681947e+00 0.000000e+00  -1.527879e+00 1.969522e+00 0.000000e+00  -1.719793e+00 2.134371e+00 0.000000e+00  -1.489728e+00 2.086709e+00 0.000000e+00  -1.116568e+00 1.834394e+00 0.000000e+00  -6.031986e-01 1.745530e+00 0.000000e+00  -6.005373e-01 1.776802e+00 0.000000e+00  -9.684952e-01 1.923625e+00 0.000000e+00  -5.325372e-01 1.778129e+00 0.000000e+00  -4.180006e-01 1.739005e+00 0.000000e+00  -1.213232e+00 2.409940e+00 0.000000e+00  -1.409553e+00 2.766636e+00 0.000000e+00  -1.389848e+00 2.977169e+00 0.000000e+00  -1.553378e+00 2.596908e+00 0.000000e+00  -1.720816e+00 2.535898e+00 0.000000e+00  -1.400918e+00 1.752941e+00 0.000000e+00  -1.178225e+00 1.766526e+00 0.000000e+00  -9.765050e-01 1.807691e+00 0.000000e+00  -1.589806e+00 2.024887e+00 0.000000e+00  -1.717491e+00 2.311507e+00 0.000000e+00  -5.951030e-01 2.870310e+00 0.000000e+00  -7.573675e-01 2.341588e+00 0.000000e+00  -8.518405e-01 1.972208e+00 0.000000e+00  -9.112853e-01 2.979167e+00 0.000000e+00  -1.198841e+00 3.035360e+00 0.000000e+00  -1.267528e+00 2.303361e+00 0.000000e+00  -1.429204e+00 2.756523e+00 0.000000e+00  -1.602103e+00 2.510580e+00 0.000000e+00  -4.912691e-02 2.212632e-01 0.000000e+00  -2.466506e-02 0.000000e+00 0.000000e+00  -7.486480e-02 4.282158e-01 0.000000e+00  -1.025797e-01 6.155841e-01 0.000000e+00  -7.050421e-02 2.143704e-01 0.000000e+00  -6.907686e-02 0.000000e+00 0.000000e+00  -8.868698e-02 2.070322e-01 0.000000e+00  -1.957057e-01 1.082801e+00 0.000000e+00  -2.706272e-01 1.272723e+00 0.000000e+00  -1.614600e-01 9.366760e-01 0.000000e+00  -1.315501e-01 7.834069e-01 0.000000e+00  -1.708493e-01 9.149416e-01 0.000000e+00  -1.764040e-01 8.993547e-01 0.000000e+00  -1.511580e-01 7.403851e-01 0.000000e+00  -1.192680e-01 1.884424e-01 0.000000e+00  -1.205150e-01 1.835646e-01 0.000000e+00  -1.172157e-01 0.000000e+00 0.000000e+00  -1.254861e-01 3.755586e-01 0.000000e+00  -1.375660e-01 5.463265e-01 0.000000e+00  -1.360411e-01 5.600057e-01 0.000000e+00  -1.134061e-01 1.939087e-01 0.000000e+00  -1.012650e-01 0.000000e+00 0.000000e+00  -1.031182e-01 2.001093e-01 0.000000e+00  -1.181796e-01 5.938986e-01 0.000000e+00  -1.294080e-01 5.755346e-01 0.000000e+00  -1.087226e-01 3.986804e-01 0.000000e+00  -2.220244e-02 1.620313e-01 0.000000e+00  -2.190404e-02 0.000000e+00 0.000000e+00  0.000000e+00 1.616109e-01 0.000000e+00  -4.372908e-02 1.632571e-01 0.000000e+00  -6.298533e-02 0.000000e+00 0.000000e+00  -6.389463e-02 1.652502e-01 0.000000e+00  -2.308848e-02 3.226212e-01 0.000000e+00  0.000000e+00 4.790177e-01 0.000000e+00  -2.454164e-02 4.803057e-01 0.000000e+00  -3.177342e-02 9.207730e-01 0.000000e+00  -3.488260e-02 1.051575e+00 0.000000e+00  0.000000e+00 1.048377e+00 0.000000e+00  -5.743303e-02 7.876199e-01 0.000000e+00  -8.493604e-02 7.987104e-01 0.000000e+00  -7.727872e-02 6.473776e-01 0.000000e+00  -2.895982e-02 7.809296e-01 0.000000e+00  0.000000e+00 7.786877e-01 0.000000e+00  -2.652077e-02 6.335871e-01 0.000000e+00  -1.092449e-01 1.749807e-01 0.000000e+00  -1.171104e-01 1.791051e-01 0.000000e+00  -1.151412e-01 0.000000e+00 0.000000e+00  -1.019349e-01 3.413090e-01 0.000000e+00  -1.096807e-01 5.091313e-01 0.000000e+00  -9.177610e-02 4.987937e-01 0.000000e+00  -9.734386e-02 1.712240e-01 0.000000e+00  -9.582338e-02 0.000000e+00 0.000000e+00  -8.200077e-02 1.679400e-01 0.000000e+00  -7.110390e-02 4.903428e-01 0.000000e+00  -6.661196e-02 3.291552e-01 0.000000e+00  -4.845877e-02 4.841141e-01 0.000000e+00  -6.614207e-02 1.606122e+00 0.000000e+00  0.000000e+00 1.615829e+00 0.000000e+00  -1.223626e-01 1.589554e+00 0.000000e+00  -1.655954e-01 1.564563e+00 0.000000e+00  -6.116829e-02 1.573231e+00 0.000000e+00  0.000000e+00 1.567815e+00 0.000000e+00  -5.585890e-02 1.523312e+00 0.000000e+00  -2.273913e-01 1.418143e+00 0.000000e+00  -2.841317e-01 1.379928e+00 0.000000e+00  -2.134407e-01 1.478716e+00 0.000000e+00  -1.950795e-01 1.528357e+00 0.000000e+00  -1.963842e-01 1.375595e+00 0.000000e+00  -1.849798e-01 1.261533e+00 0.000000e+00  -1.615108e-01 1.340293e+00 0.000000e+00  -4.196137e-02 1.280361e+00 0.000000e+00  -3.825957e-02 1.171878e+00 0.000000e+00  0.000000e+00 1.276345e+00 0.000000e+00  -8.331663e-02 1.292389e+00 0.000000e+00  -1.129992e-01 1.200996e+00 0.000000e+00  -1.234202e-01 1.312404e+00 0.000000e+00  -4.610121e-02 1.375835e+00 0.000000e+00  0.000000e+00 1.452411e+00 0.000000e+00  -5.075330e-02 1.457179e+00 0.000000e+00  -1.493685e-01 1.495256e+00 0.000000e+00  -1.353292e-01 1.410783e+00 0.000000e+00  -1.008319e-01 1.471473e+00 0.000000e+00  -2.406934e-01 1.220002e+00 0.000000e+00  -2.006001e-01 1.049688e+00 0.000000e+00  -1.704726e-01 8.788163e-01 0.000000e+00  -2.040195e-01 1.170495e+00 0.000000e+00  -1.694068e-01 1.130859e+00 0.000000e+00  -6.937354e-02 1.061180e+00 0.000000e+00  -9.372477e-02 9.426332e-01 0.000000e+00  -1.109601e-01 8.140703e-01 0.000000e+00  -1.031856e-01 1.077311e+00 0.000000e+00  -1.363186e-01 1.100284e+00 0.000000e+00  -1.231115e-01 3.571924e-01 0.000000e+00  -1.334604e-01 5.333841e-01 0.000000e+00  -1.488188e-01 7.071706e-01 0.000000e+00  -1.239019e-01 5.208576e-01 0.000000e+00  -1.206689e-01 6.735631e-01 0.000000e+00  -1.554320e-01 8.556228e-01 0.000000e+00  -1.348445e-01 8.333463e-01 0.000000e+00  -1.516514e-01 9.867319e-01 0.000000e+00  -1.525929e-03 4.099050e-01 0.000000e+00  -3.084053e-03 2.236450e-01 0.000000e+00  4.210826e-03 5.800222e-01 0.000000e+00  1.403972e-02 7.276321e-01 0.000000e+00  -3.882062e-03 4.304940e-01 0.000000e+00  -7.266601e-03 3.218517e-01 0.000000e+00  -6.608695e-03 4.406756e-01 0.000000e+00  -4.929950e-01 1.103260e+00 0.000000e+00  -9.011686e-01 1.257241e+00 0.000000e+00  -1.378211e-01 9.750881e-01 0.000000e+00  2.059129e-02 8.616977e-01 0.000000e+00  -1.485243e-01 9.458561e-01 0.000000e+00  -1.600855e-01 9.308989e-01 0.000000e+00  -2.090426e-02 8.283139e-01 0.000000e+00  -2.544503e-02 9.417709e-01 0.000000e+00  -1.150649e-01 1.323974e+00 0.000000e+00  -2.282107e-01 1.363817e+00 0.000000e+00  2.363878e-02 7.241842e-01 0.000000e+00  2.423209e-02 8.495122e-01 0.000000e+00  1.173279e-02 7.273622e-01 0.000000e+00  1.226625e-03 6.003071e-01 0.000000e+00  -2.781315e-02 5.090736e-01 0.000000e+00  -8.468895e-03 4.434306e-01 0.000000e+00  1.127073e-02 7.170068e-01 0.000000e+00  6.715712e-03 7.057273e-01 0.000000e+00  -1.813628e-03 5.711938e-01 0.000000e+00  -1.449655e-01 1.614668e+00 0.000000e+00  -7.179651e-02 1.599183e+00 0.000000e+00  -2.219742e-01 1.640573e+00 0.000000e+00  -3.133113e-01 1.676382e+00 0.000000e+00  -2.140660e-01 1.601132e+00 0.000000e+00  -2.025324e-01 1.545498e+00 0.000000e+00  -2.642507e-01 1.577061e+00 0.000000e+00  -1.216378e+00 1.563227e+00 0.000000e+00  -1.186429e+00 1.419704e+00 0.000000e+00  -9.629973e-01 1.661943e+00 0.000000e+00  -5.562214e-01 1.699497e+00 0.000000e+00  -1.045765e+00 1.475763e+00 0.000000e+00  -8.698449e-01 1.281871e+00 0.000000e+00  -8.694991e-01 1.420105e+00 0.000000e+00  -4.571986e-01 1.323737e+00 0.000000e+00  -4.460480e-01 1.226650e+00 0.000000e+00  -4.002692e-01 1.244236e+00 0.000000e+00  -5.605312e-01 1.364241e+00 0.000000e+00  -5.954133e-01 1.271406e+00 0.000000e+00  -7.025825e-01 1.388505e+00 0.000000e+00  -4.184584e-01 1.435013e+00 0.000000e+00  -3.012906e-01 1.440982e+00 0.000000e+00  -3.285342e-01 1.529495e+00 0.000000e+00  -4.749951e-01 1.650168e+00 0.000000e+00  -6.698660e-01 1.536214e+00 0.000000e+00  -3.880174e-01 1.596343e+00 0.000000e+00  -6.338157e-01 2.435912e-01 0.000000e+00  -6.455070e-01 1.138494e-01 0.000000e+00  -6.299872e-0