<?xml version="1.0"?>
<VTKFile type="UnstructuredGrid"  version="0.1"  >
<UnstructuredGrid>
<Piece  NumberOfPoints="225" NumberOfCells="384">
<Points>
<DataArray  type="Float32"  NumberOfComponents="3"  format="ascii">0 0 0  1 0 0  1 1 0  0 1 0  -1 1 0  -1 0 0  -1 -1 0  0 -1 0  0.5 0.5 0  0 0.5 0  0.5 0 0  0.5 1 0  1 0.5 0  -0.5 0.5 0  -0.5 0 0  -1 0.5 0  -0.5 1 0  -0.5 -0.5 0  0 -0.5 0  -0.5 -1 0  -1 -0.5 0  0.25 0.25 0  0.25 0 0  0 0.25 0  0.5 0.25 0  0.75 0 0  0.75 0.25 0  0.25 0.5 0  0 0.75 0  0.25 0.75 0  0.75 0.5 0  1 0.25 0  0.75 0.75 0  1 0.75 0  0.75 1 0  0.5 0.75 0  0.25 1 0  -0.25 0.25 0  -0.25 0 0  -0.25 0.5 0  -0.25 0.75 0  -0.5 0.25 0  -0.75 0 0  -0.75 0.25 0  -0.5 0.75 0  -0.25 1 0  -0.75 0.75 0  -0.75 1 0  -1 0.75 0  -0.75 0.5 0  -1 0.25 0  -0.25 -0.25 0  0 -0.25 0  -0.5 -0.25 0  -0.75 -0.25 0  -0.25 -0.5 0  0 -0.75 0  -0.25 -0.75 0  -0.75 -0.5 0  -1 -0.25 0  -0.75 -0.75 0  -1 -0.75 0  -0.75 -1 0  -0.5 -0.75 0  -0.25 -1 0  0.125 0.125 0  0 0.125 0  0.125 0 0  0.125 0.25 0  0 0.375 0  0.125 0.375 0  0.25 0.125 0  0.375 0 0  0.375 0.125 0  0.75 0.125 0  0.875 0.125 0  0.875 0 0  0.625 0.25 0  0.625 0.375 0  0.5 0.375 0  0.625 0.125 0  0.625 0 0  0.5 0.125 0  0.125 0.75 0  0.125 0.875 0  0 0.875 0  0.25 0.625 0  0.375 0.625 0  0.375 0.5 0  0.125 0.625 0  0 0.625 0  0.125 0.5 0  0.375 0.375 0  0.25 0.375 0  0.375 0.25 0  0.875 0.25 0  1 0.125 0  0.75 0.375 0  0.625 0.5 0  0.875 0.375 0  1 0.375 0  0.875 0.5 0  0.875 0.875 0  0.875 1 0  1 0.875 0  0.75 0.875 0  0.625 1 0  0.625 0.875 0  0.875 0.75 0  1 0.625 0  0.875 0.625 0  0.25 0.875 0  0.125 1 0  0.375 0.75 0  0.5 0.625 0  0.375 0.875 0  0.375 1 0  0.5 0.875 0  0.625 0.625 0  0.625 0.75 0  0.75 0.625 0  -0.125 0.125 0  -0.125 0 0  -0.125 0.25 0  -0.125 0.375 0  -0.25 0.125 0  -0.375 0 0  -0.375 0.125 0  -0.125 0.75 0  -0.125 0.875 0  -0.125 0.625 0  -0.125 0.5 0  -0.25 0.625 0  -0.375 0.625 0  -0.375 0.5 0  -0.75 0.125 0  -0.875 0.125 0  -0.875 0 0  -0.625 0.25 0  -0.625 0.375 0  -0.5 0.375 0  -0.625 0.125 0  -0.625 0 0  -0.5 0.125 0  -0.25 0.375 0  -0.375 0.375 0  -0.375 0.25 0  -0.25 0.875 0  -0.125 1 0  -0.375 0.75 0  -0.5 0.625 0  -0.375 0.875 0  -0.375 1 0  -0.5 0.875 0  -0.875 0.875 0  -1 0.875 0  -0.875 1 0  -0.875 0.75 0  -1 0.625 0  -0.875 0.625 0  -0.75 0.875 0  -0.625 1 0  -0.625 0.875 0  -0.875 0.25 0  -1 0.125 0  -0.75 0.375 0  -0.625 0.5 0  -0.875 0.375 0  -1 0.375 0  -0.875 0.5 0  -0.625 0.625 0  -0.75 0.625 0  -0.625 0.75 0  -0.125 -0.125 0  0 -0.125 0  -0.25 -0.125 0  -0.375 -0.125 0  -0.125 -0.25 0  0 -0.375 0  -0.125 -0.375 0  -0.75 -0.125 0  -0.875 -0.125 0  -0.625 -0.125 0  -0.5 -0.125 0  -0.625 -0.25 0  -0.625 -0.375 0  -0.5 -0.375 0  -0.125 -0.75 0  -0.125 -0.875 0  0 -0.875 0  -0.25 -0.625 0  -0.375 -0.625 0  -0.375 -0.5 0  -0.125 -0.625 0  0 -0.625 0  -0.125 -0.5 0  -0.375 -0.25 0  -0.375 -0.375 0  -0.25 -0.375 0  -0.875 -0.25 0  -1 -0.125 0  -0.75 -0.375 0  -0.625 -0.5 0  -0.875 -0.375 0  -1 -0.375 0  -0.875 -0.5 0  -0.875 -0.875 0  -0.875 -1 0  -1 -0.875 0  -0.75 -0.875 0  -0.625 -1 0  -0.625 -0.875 0  -0.875 -0.75 0  -1 -0.625 0  -0.875 -0.625 0  -0.25 -0.875 0  -0.125 -1 0  -0.375 -0.75 0  -0.5 -0.625 0  -0.375 -0.875 0  -0.375 -1 0  -0.5 -0.875 0  -0.625 -0.625 0  -0.625 -0.75 0  -0.75 -0.625 0  </DataArray>
</Points>
<Cells>
<DataArray  type="UInt32"  Name="connectivity"  format="ascii">0 66 67  22 65 67  23 65 66  65 66 67  9 69 70  21 68 70  23 68 69  68 69 70  10 72 73  21 71 73  22 71 72  71 72 73  21 68 71  22 65 71  23 65 68  65 68 71  1 75 76  25 74 76  26 74 75  74 75 76  8 78 79  24 77 79  26 77 78  77 78 79  10 81 82  24 80 82  25 80 81  80 81 82  24 77 80  25 74 80  26 74 77  74 77 80  3 84 85  28 83 85  29 83 84  83 84 85  8 87 88  27 86 88  29 86 87  86 87 88  9 90 91  27 89 91  28 89 90  89 90 91  27 86 89  28 83 89  29 83 86  83 86 89  8 79 88  24 79 92  27 88 92  79 88 92  9 70 91  21 70 93  27 91 93  70 91 93  10 73 82  21 73 94  24 82 94  73 82 94  21 93 94  24 92 94  27 92 93  92 93 94  1 75 96  26 75 95  31 95 96  75 95 96  8 78 98  26 78 97  30 97 98  78 97 98  12 100 101  30 99 101  31 99 100  99 100 101  26 95 97  30 97 99  31 95 99  95 97 99  2 103 104  33 102 104  34 102 103  102 103 104  11 106 107  32 105 107  34 105 106  105 106 107  12 109 110  32 108 110  33 108 109  108 109 110  32 105 108  33 102 108  34 102 105  102 105 108  3 84 112  29 84 111  36 111 112  84 111 112  8 87 114  29 87 113  35 113 114  87 113 114  11 116 117  35 115 117  36 115 116  115 116 117  29 111 113  35 113 115  36 111 115  111 113 115  8 98 114  30 98 118  35 114 118  98 114 118  11 107 117  32 107 119  35 117 119  107 117 119  12 101 110  30 101 120  32 110 120  101 110 120  30 118 120  32 119 120  35 118 119  118 119 120  0 66 122  23 66 121  38 121 122  66 121 122  9 69 124  23 69 123  37 123 124  69 123 124  14 126 127  37 125 127  38 125 126  125 126 127  23 121 123  37 123 125  38 121 125  121 123 125  3 85 129  28 85 128  40 128 129  85 128 129  9 90 131  28 90 130  39 130 131  90 130 131  13 133 134  39 132 134  40 132 133  132 133 134  28 128 130  39 130 132  40 128 132  128 130 132  5 136 137  42 135 137  43 135 136  135 136 137  13 139 140  41 138 140  43 138 139  138 139 140  14 142 143  41 141 143  42 141 142  141 142 143  41 138 141  42 135 141  43 135 138  135 138 141  9 124 131  37 124 144  39 131 144  124 131 144  13 134 140  39 134 145  41 140 145  134 140 145  14 127 143  37 127 146  41 143 146  127 143 146  37 144 146  39 144 145  41 145 146  144 145 146  3 129 148  40 129 147  45 147 148  129 147 148  13 133 150  40 133 149  44 149 150  133 149 150  16 152 153  44 151 153  45 151 152  151 152 153  40 147 149  44 149 151  45 147 151  147 149 151  4 155 156  47 154 156  48 154 155  154 155 156  15 158 159  46 157 159  48 157 158  157 158 159  16 161 162  46 160 162  47 160 161  160 161 162  46 157 160  47 154 160  48 154 157  154 157 160  5 136 164  43 136 163  50 163 164  136 163 164  13 139 166  43 139 165  49 165 166  139 165 166  15 168 169  49 167 169  50 167 168  167 168 169  43 163 165  49 165 167  50 163 167  163 165 167  13 150 166  44 150 170  49 166 170  150 166 170  15 159 169  46 159 171  49 169 171  159 169 171  16 153 162  44 153 172  46 162 172  153 162 172  44 170 172  46 171 172  49 170 171  170 171 172  0 122 174  38 122 173  52 173 174  122 173 174  14 126 176  38 126 175  51 175 176  126 175 176  18 178 179  51 177 179  52 177 178  177 178 179  38 173 175  51 175 177  52 173 177  173 175 177  5 137 181  42 137 180  54 180 181  137 180 181  14 142 183  42 142 182  53 182 183  142 182 183  17 185 186  53 184 186  54 184 185  184 185 186  42 180 182  53 182 184  54 180 184  180 182 184  7 188 189  56 187 189  57 187 188  187 188 189  17 191 192  55 190 192  57 190 191  190 191 192  18 194 195  55 193 195  56 193 194  193 194 195  55 190 193  56 187 193  57 187 190  187 190 193  14 176 183  51 176 196  53 183 196  176 183 196  17 186 192  53 186 197  55 192 197  186 192 197  18 179 195  51 179 198  55 195 198  179 195 198  51 196 198  53 196 197  55 197 198  196 197 198  5 181 200  54 181 199  59 199 200  181 199 200  17 185 202  54 185 201  58 201 202  185 201 202  20 204 205  58 203 205  59 203 204  203 204 205  54 199 201  58 201 203  59 199 203  199 201 203  6 207 208  61 206 208  62 206 207  206 207 208  19 210 211  60 209 211  62 209 210  209 210 211  20 213 214  60 212 214  61 212 213  212 213 214  60 209 212  61 206 212  62 206 209  206 209 212  7 188 216  57 188 215  64 215 216  188 215 216  17 191 218  57 191 217  63 217 218  191 217 218  19 220 221  63 219 221  64 219 220  219 220 221  57 215 217  63 217 219  64 215 219  215 217 219  17 202 218  58 202 222  63 218 222  202 218 222  19 211 221  60 211 223  63 221 223  211 221 223  20 205 214  58 205 224  60 214 224  205 214 224  58 222 224  60 223 224  63 222 223  222 223 224  </DataArray>
<DataArray  type="UInt32"  Name="offsets"  format="ascii">3 6 9 12 15 18 21 24 27 30 33 36 39 42 45 48 51 54 57 60 63 66 69 72 75 78 81 84 87 90 93 96 99 102 105 108 111 114 117 120 123 126 129 132 135 138 141 144 147 150 153 156 159 162 165 168 171 174 177 180 183 186 189 192 195 198 201 204 207 210 213 216 219 222 225 228 231 234 237 240 243 246 249 252 255 258 261 264 267 270 273 276 279 282 285 288 291 294 297 300 303 306 309 312 315 318 321 324 327 330 333 336 339 342 345 348 351 354 357 360 363 366 369 372 375 378 381 384 387 390 393 396 399 402 405 408 411 414 417 420 423 426 429 432 435 438 441 444 447 450 453 456 459 462 465 468 471 474 477 480 483 486 489 492 495 498 501 504 507 510 513 516 519 522 525 528 531 534 537 540 543 546 549 552 555 558 561 564 567 570 573 576 579 582 585 588 591 594 597 600 603 606 609 612 615 618 621 624 627 630 633 636 639 642 645 648 651 654 657 660 663 666 669 672 675 678 681 684 687 690 693 696 699 702 705 708 711 714 717 720 723 726 729 732 735 738 741 744 747 750 753 756 759 762 765 768 771 774 777 780 783 786 789 792 795 798 801 804 807 810 813 816 819 822 825 828 831 834 837 840 843 846 849 852 855 858 861 864 867 870 873 876 879 882 885 888 891 894 897 900 903 906 909 912 915 918 921 924 927 930 933 936 939 942 945 948 951 954 957 960 963 966 969 972 975 978 981 984 987 990 993 996 999 1002 1005 1008 1011 1014 1017 1020 1023 1026 1029 1032 1035 1038 1041 1044 1047 1050 1053 1056 1059 1062 1065 1068 1071 1074 1077 1080 1083 1086 1089 1092 1095 1098 1101 1104 1107 1110 1113 1116 1119 1122 1125 1128 1131 1134 1137 1140 1143 1146 1149 1152 </DataArray>
<DataArray  type="UInt8"  Name="types"  format="ascii">5 5 5 5 5 5 5 5 5 5 5 5 5 5 5 5 5 5 5 5 5 5 5 5 5 5 5 5 5 5 5 5 5 5 5 5 5 5 5 5 5 5 5 5 5 5 5 5 5 5 5 5 5 5 5 5 5 5 5 5 5 5 5 5 5 5 5 5 5 5 5 5 5 5 5 5 5 5 5 5 5 5 5 5 5 5 5 5 5 5 5 5 5 5 5 5 5 5 5 5 5 5 5 5 5 5 5 5 5 5 5 5 5 5 5 5 5 5 5 5 5 5 5 5 5 5 5 5 5 5 5 5 5 5 5 5 5 5 5 5 5 5 5 5 5 5 5 5 5 5 5 5 5 5 5 5 5 5 5 5 5 5 5 5 5 5 5 5 5 5 5 5 5 5 5 5 5 5 5 5 5 5 5 5 5 5 5 5 5 5 5 5 5 5 5 5 5 5 5 5 5 5 5 5 5 5 5 5 5 5 5 5 5 5 5 5 5 5 5 5 5 5 5 5 5 5 5 5 5 5 5 5 5 5 5 5 5 5 5 5 5 5 5 5 5 5 5 5 5 5 5 5 5 5 5 5 5 5 5 5 5 5 5 5 5 5 5 5 5 5 5 5 5 5 5 5 5 5 5 5 5 5 5 5 5 5 5 5 5 5 5 5 5 5 5 5 5 5 5 5 5 5 5 5 5 5 5 5 5 5 5 5 5 5 5 5 5 5 5 5 5 5 5 5 5 5 5 5 5 5 5 5 5 5 5 5 5 5 5 5 5 5 5 5 5 5 5 5 5 5 5 5 5 5 5 5 5 5 5 5 5 5 5 5 5 5 5 5 5 5 5 5 5 5 5 5 5 5 5 5 5 5 5 5 </DataArray>
</Cells>
<PointData  Vectors="u"> 
<DataArray  type="Float32"  Name="u"  NumberOfComponents="3" format="ascii">-1.307276e-01 0.000000e+00 0.000000e+00  0.000000e+00 0.000000e+00 0.000000e+00  0.000000e+00 0.000000e+00 0.000000e+00  0.000000e+00 -2.174656e+00 0.000000e+00  0.000000e+00 0.000000e+00 0.000000e+00  2.146969e+00 0.000000e+00 0.000000e+00  0.000000e+00 0.000000e+00 0.000000e+00  0.000000e+00 0.000000e+00 0.000000e+00  -3.255016e-01 -2.972269e-01 0.000000e+00  -7.406289e-02 -5.752182e-01 0.000000e+00  0.000000e+00 1.153354e-01 0.000000e+00  0.000000e+00 -1.410330e+00 0.000000e+00  -4.572581e-01 0.000000e+00 0.000000e+00  5.977321e-01 -6.194057e-01 0.000000e+00  5.405406e-01 5.294200e-02 0.000000e+00  1.847026e+00 0.000000e+00 0.000000e+00  0.000000e+00 -1.866120e+00 0.000000e+00  2.760932e-01 3.183211e-01 0.000000e+00  -1.386621e-01 0.000000e+00 0.000000e+00  0.000000e+00 4.540410e-01 0.000000e+00  1.391519e+00 0.000000e+00 0.000000e+00  -1.655321e-01 -2.982197e-02 0.000000e+00  0.000000e+00 1.315204e-01 0.000000e+00  -9.378232e-02 -1.091205e-01 0.000000e+00  -2.134979e-01 6.336451e-03 0.000000e+00  0.000000e+00 7.266850e-02 0.000000e+00  -2.537890e-01 1.520877e-02 0.000000e+00  -2.261506e-01 -4.442243e-01 0.000000e+00  -4.425015e-02 -1.272651e+00 0.000000e+00  -1.758069e-01 -1.074210e+00 0.000000e+00  -3.992160e-01 -1.468677e-01 0.000000e+00  -2.882280e-01 0.000000e+00 0.000000e+00  -3.419420e-01 -4.088352e-01 0.000000e+00  -3.965609e-01 0.000000e+00 0.000000e+00  0.000000e+00 -7.630138e-01 0.000000e+00  -2.708255e-01 -7.750243e-01 0.000000e+00  0.000000e+00 -1.897206e+00 0.000000e+00  1.512428e-01 -1.890607e-01 0.000000e+00  5.961971e-02 5.408126e-02 0.000000e+00  1.900166e-01 -6.550100e-01 0.000000e+00  1.456778e-01 -1.326590e+00 0.000000e+00  6.241987e-01 -2.133915e-01 0.000000e+00  1.243445e+00 3.433263e-02 0.000000e+00  1.299879e+00 -1.569039e-01 0.000000e+00  4.045661e-01 -1.172361e+00 0.000000e+00  0.000000e+00 -2.184361e+00 0.000000e+00  7.390941e-01 -7.495140e-01 0.000000e+00  0.000000e+00 -1.158567e+00 0.000000e+00  1.148423e+00 0.000000e+00 0.000000e+00  1.152554e+00 -4.155860e-01 0.000000e+00  2.158943e+00 0.000000e+00 0.000000e+00  -4.752513e-03 1.497144e-01 0.000000e+00  -1.641763e-01 0.000000e+00 0.000000e+00  4.143998e-01 2.128437e-01 0.000000e+00  1.047878e+00 1.687687e-01 0.000000e+00  -2.924086e-02 2.070914e-01 0.000000e+00  -8.449185e-02 0.000000e+00 0.000000e+00  -2.678078e-02 2.505937e-01 0.000000e+00  7.555704e-01 2.665060e-01 0.000000e+00  1.872040e+00 0.000000e+00 0.000000e+00  3.985806e-01 3.392522e-01 0.000000e+00  7.530290e-01 0.000000e+00 0.000000e+00  0.000000e+00 3.943883e-01 0.000000e+00  1.359557e-01 3.951074e-01 0.000000e+00  0.000000e+00 2.858325e-01 0.000000e+00  -9.143167e-02 6.590615e-02 0.000000e+00  -1.046796e-01 1.324468e-02 0.000000e+00  0.000000e+00 1.310721e-01 0.000000e+00  -1.358326e-01 -6.297737e-02 0.000000e+00  -8.474893e-02 -3.102229e-01 0.000000e+00  -1.565234e-01 -2.578463e-01 0.000000e+00  -9.518818e-02 8.550820e-02 0.000000e+00  0.000000e+00 1.266688e-01 0.000000e+00  -1.039931e-01 9.048197e-02 0.000000e+00  -1.339421e-01 5.714781e-02 0.000000e+00  -1.432214e-01 3.218272e-02 0.000000e+00  0.000000e+00 4.058844e-02 0.000000e+00  -2.344329e-01 1.376089e-02 0.000000e+00  -3.181992e-01 -8.577373e-02 0.000000e+00  -2.868759e-01 -1.224335e-01 0.000000e+00  -1.242037e-01 7.518129e-02 0.000000e+00  0.000000e+00 9.740451e-02 0.000000e+00  -1.140843e-01 8.643582e-02 0.000000e+00  -1.155374e-01 -1.188702e+00 0.000000e+00  -6.729274e-02 -1.602794e+00 0.000000e+00  -2.423073e-02 -1.698809e+00 0.000000e+00  -2.155651e-01 -7.339706e-01 0.000000e+00  -2.733601e-01 -6.297946e-01 0.000000e+00  -2.801605e-01 -3.716065e-01 0.000000e+00  -1.459361e-01 -8.247240e-01 0.000000e+00  -6.071852e-02 -8.973212e-01 0.000000e+00  -1.594786e-01 -5.133093e-01 0.000000e+00  -2.512415e-01 -1.630651e-01 0.000000e+00  -2.091929e-01 -2.081296e-01 0.000000e+00  -1.907362e-01 -7.659128e-03 0.000000e+00  -2.716980e-01 1.069066e-02 0.000000e+00  -1.522424e-01 0.000000e+00 0.000000e+00  -3.462918e-01 -5.295409e-02 0.000000e+00  -3.646796e-01 -2.220530e-01 0.000000e+00  -3.716857e-01 -2.420641e-02 0.000000e+00  -3.945419e-01 0.000000e+00 0.000000e+00  -4.299607e-01 -7.252231e-02 0.000000e+00  -2.302088e-01 -2.950959e-01 0.000000e+00  0.000000e+00 -3.932618e-01 0.000000e+00  -2.464464e-01 0.000000e+00 0.000000e+00  -2.113496e-01 -5.749353e-01 0.000000e+00  0.000000e+00 -1.103818e+00 0.000000e+00  -1.898510e-01 -8.358546e-01 0.000000e+00  -3.710957e-01 -2.084301e-01 0.000000e+00  -4.624698e-01 0.000000e+00 0.000000e+00  -4.338146e-01 -1.340570e-01 0.000000e+00  -1.047476e-01 -1.462557e+00 0.000000e+00  0.000000e+00 -2.065088e+00 0.000000e+00  -2.269914e-01 -9.347970e-01 0.000000e+00  -3.222494e-01 -5.155141e-01 0.000000e+00  -1.371900e-01 -1.284379e+00 0.000000e+00  0.000000e+00 -1.676838e+00 0.000000e+00  -1.653271e-01 -1.073820e+00 0.000000e+00  -3.643876e-01 -3.935368e-01 0.000000e+00  -3.087672e-01 -5.986416e-01 0.000000e+00  -4.012670e-01 -2.658018e-01 0.000000e+00  -3.697749e-02 -1.812731e-02 0.000000e+00  -8.349531e-02 4.175793e-02 0.000000e+00  -7.603086e-04 -1.541200e-01 0.000000e+00  2.514549e-02 -3.594146e-01 0.000000e+00  1.087260e-01 -4.025990e-02 0.000000e+00  2.701903e-01 5.625855e-02 0.000000e+00  3.209576e-01 -5.597302e-02 0.000000e+00  4.281233e-02 -1.321865e+00 0.000000e+00  2.735132e-02 -1.745384e+00 0.000000e+00  4.719857e-02 -9.478659e-01 0.000000e+00  4.115921e-02 -6.258375e-01 0.000000e+00  1.794383e-01 -9.665088e-01 0.000000e+00  3.382906e-01 -9.456286e-01 0.000000e+00  3.752692e-01 -6.551850e-01 0.000000e+00  1.293241e+00 -5.363044e-02 0.000000e+00  1.717896e+00 -3.269473e-02 0.000000e+00  1.670773e+00 1.932472e-02 0.000000e+00  9.381275e-01 -1.965434e-01 0.000000e+00  9.207108e-01 -3.552279e-01 0.000000e+00  6.286060e-01 -3.979790e-01 0.000000e+00  9.172211e-01 -6.381470e-02 0.000000e+00  8.660027e-01 4.551127e-02 0.000000e+00  5.920588e-01 -6.423386e-02 0.000000e+00  1.796975e-01 -3.948078e-01 0.000000e+00  3.810674e-01 -4.095688e-01 0.000000e+00  3.607795e-01 -2.099449e-01 0.000000e+00  8.659265e-02 -1.733103e+00 0.000000e+00  0.000000e+00 -2.216744e+00 0.000000e+00  2.659029e-01 -1.279299e+00 0.000000e+00  5.249862e-01 -8.777517e-01 0.000000e+00  1.543338e-01 -1.654586e+00 0.000000e+00  0.000000e+00 -2.070000e+00 0.000000e+00  2.312148e-01 -1.502213e+00 0.000000e+00  5.195539e-01 -5.247315e-01 0.000000e+00  6.340264e-01 0.000000e+00 0.000000e+00  0.000000e+00 -6.391680e-01 0.000000e+00  9.347417e-01 -4.191058e-01 0.000000e+00  1.550102e+00 0.000000e+00 0.000000e+00  1.253273e+00 -3.230591e-01 0.000000e+00  4.138366e-01 -9.449608e-01 0.000000e+00  0.000000e+00 -1.564954e+00 0.000000e+00  3.176616e-01 -1.268249e+00 0.000000e+00  1.707364e+00 -9.215805e-02 0.000000e+00  2.189619e+00 0.000000e+00 0.000000e+00  1.255614e+00 -2.771437e-01 0.000000e+00  8.571129e-01 -5.414167e-01 0.000000e+00  1.631651e+00 -1.599389e-01 0.000000e+00  2.047318e+00 0.000000e+00 0.000000e+00  1.482935e+00 -2.367418e-01 0.000000e+00  7.399257e-01 -7.557618e-01 0.000000e+00  9.829015e-01 -5.729674e-01 0.000000e+00  5.622575e-01 -9.982207e-01 0.000000e+00  -1.105403e-01 6.618783e-02 0.000000e+00  -1.617411e-01 0.000000e+00 0.000000e+00  2.142509e-02 1.100814e-01 0.000000e+00  2.209850e-01 1.346686e-01 0.000000e+00  -1.208857e-01 8.326563e-02 0.000000e+00  -1.553277e-01 0.000000e+00 0.000000e+00  -1.195762e-01 9.755303e-02 0.000000e+00  1.160313e+00 1.069661e-01 0.000000e+00  1.575473e+00 6.301863e-02 0.000000e+00  7.944723e-01 1.330120e-01 0.000000e+00  4.802775e-01 1.421105e-01 0.000000e+00  7.061729e-01 2.052136e-01 0.000000e+00  6.054443e-01 2.653817e-01 0.000000e+00  3.458602e-01 2.703333e-01 0.000000e+00  -6.890791e-02 1.321499e-01 0.000000e+00  -3.808019e-02 1.417916e-01 0.000000e+00  -4.651994e-02 0.000000e+00 0.000000e+00  -3.102961e-02 2.300631e-01 0.000000e+00  6.900835e-02 3.129051e-01 0.000000e+00  1.003275e-01 2.794538e-01 0.000000e+00  -9.274577e-02 1.216889e-01 0.000000e+00  -1.150468e-01 0.000000e+00 0.000000e+00  -1.097491e-01 1.102282e-01 0.000000e+00  1.758704e-01 1.937159e-01 0.000000e+00  1.357880e-01 2.405494e-01 0.000000e+00  -2.091438e-02 1.808587e-01 0.000000e+00  1.437100e+00 1.011932e-01 0.000000e+00  2.038110e+00 0.000000e+00 0.000000e+00  9.115192e-01 2.214233e-01 0.000000e+00  4.953131e-01 3.162050e-01 0.000000e+00  1.261766e+00 1.343382e-01 0.000000e+00  1.654453e+00 0.000000e+00 0.000000e+00  1.054843e+00 1.630852e-01 0.000000e+00  2.899988e-01 2.289827e-01 0.000000e+00  0.000000e+00 2.452864e-01 0.000000e+00  3.882006e-01 0.000000e+00 0.000000e+00  2.032392e-01 3.687950e-01 0.000000e+00  0.000000e+00 4.595722e-01 0.000000e+00  1.287255e-01 4.307360e-01 0.000000e+00  5.648781e-01 2.099246e-01 0.000000e+00  1.089198e+00 0.000000e+00 0.000000e+00  8.211191e-01 1.880884e-01 0.000000e+00  -1.649720e-02 2.691135e-01 0.000000e+00  0.000000e+00 1.509227e-01 0.000000e+00  4.168133e-02 3.423076e-01 0.000000e+00  2.058995e-01 3.593616e-01 0.000000e+00  1.853992e-02 3.684089e-01 0.000000e+00  0.000000e+00 3.914883e-01 0.000000e+00  6.702352e-02 4.265272e-01 0.000000e+00  3.779850e-01 3.597812e-01 0.000000e+00  2.552483e-01 3.976321e-01 0.000000e+00  5.835840e-01 3.054099e-01 0.000000e+00  </DataArray> 
</PointData> 
</Piece>
</UnstructuredGrid>
</VTKFile>