<?xml version="1.0"?>
<VTKFile type="UnstructuredGrid"  version="0.1"  >
<UnstructuredGrid>
<Piece  NumberOfPoints="3201" NumberOfCells="6144">
<Points>
<DataArray  type="Float32"  NumberOfComponents="3"  format="ascii">0 0 0  1 0 0  1 1 0  0 1 0  -1 1 0  -1 0 0  -1 -1 0  0 -1 0  0.5 0.5 0  0 0.5 0  0.5 0 0  0.5 1 0  1 0.5 0  -0.5 0.5 0  -0.5 0 0  -1 0.5 0  -0.5 1 0  -0.5 -0.5 0  0 -0.5 0  -0.5 -1 0  -1 -0.5 0  0.25 0.25 0  0.25 0 0  0 0.25 0  0.5 0.25 0  0.75 0 0  0.75 0.25 0  0.25 0.5 0  0 0.75 0  0.25 0.75 0  0.75 0.5 0  1 0.25 0  0.75 0.75 0  1 0.75 0  0.75 1 0  0.5 0.75 0  0.25 1 0  -0.25 0.25 0  -0.25 0 0  -0.25 0.5 0  -0.25 0.75 0  -0.5 0.25 0  -0.75 0 0  -0.75 0.25 0  -0.5 0.75 0  -0.25 1 0  -0.75 0.75 0  -0.75 1 0  -1 0.75 0  -0.75 0.5 0  -1 0.25 0  -0.25 -0.25 0  0 -0.25 0  -0.5 -0.25 0  -0.75 -0.25 0  -0.25 -0.5 0  0 -0.75 0  -0.25 -0.75 0  -0.75 -0.5 0  -1 -0.25 0  -0.75 -0.75 0  -1 -0.75 0  -0.75 -1 0  -0.5 -0.75 0  -0.25 -1 0  0.125 0.125 0  0 0.125 0  0.125 0 0  0.125 0.25 0  0 0.375 0  0.125 0.375 0  0.25 0.125 0  0.375 0 0  0.375 0.125 0  0.75 0.125 0  0.875 0.125 0  0.875 0 0  0.625 0.25 0  0.625 0.375 0  0.5 0.375 0  0.625 0.125 0  0.625 0 0  0.5 0.125 0  0.125 0.75 0  0.125 0.875 0  0 0.875 0  0.25 0.625 0  0.375 0.625 0  0.375 0.5 0  0.125 0.625 0  0 0.625 0  0.125 0.5 0  0.375 0.375 0  0.25 0.375 0  0.375 0.25 0  0.875 0.25 0  1 0.125 0  0.75 0.375 0  0.625 0.5 0  0.875 0.375 0  1 0.375 0  0.875 0.5 0  0.875 0.875 0  0.875 1 0  1 0.875 0  0.75 0.875 0  0.625 1 0  0.625 0.875 0  0.875 0.75 0  1 0.625 0  0.875 0.625 0  0.25 0.875 0  0.125 1 0  0.375 0.75 0  0.5 0.625 0  0.375 0.875 0  0.375 1 0  0.5 0.875 0  0.625 0.625 0  0.625 0.75 0  0.75 0.625 0  -0.125 0.125 0  -0.125 0 0  -0.125 0.25 0  -0.125 0.375 0  -0.25 0.125 0  -0.375 0 0  -0.375 0.125 0  -0.125 0.75 0  -0.125 0.875 0  -0.125 0.625 0  -0.125 0.5 0  -0.25 0.625 0  -0.375 0.625 0  -0.375 0.5 0  -0.75 0.125 0  -0.875 0.125 0  -0.875 0 0  -0.625 0.25 0  -0.625 0.375 0  -0.5 0.375 0  -0.625 0.125 0  -0.625 0 0  -0.5 0.125 0  -0.25 0.375 0  -0.375 0.375 0  -0.375 0.25 0  -0.25 0.875 0  -0.125 1 0  -0.375 0.75 0  -0.5 0.625 0  -0.375 0.875 0  -0.375 1 0  -0.5 0.875 0  -0.875 0.875 0  -1 0.875 0  -0.875 1 0  -0.875 0.75 0  -1 0.625 0  -0.875 0.625 0  -0.75 0.875 0  -0.625 1 0  -0.625 0.875 0  -0.875 0.25 0  -1 0.125 0  -0.75 0.375 0  -0.625 0.5 0  -0.875 0.375 0  -1 0.375 0  -0.875 0.5 0  -0.625 0.625 0  -0.75 0.625 0  -0.625 0.75 0  -0.125 -0.125 0  0 -0.125 0  -0.25 -0.125 0  -0.375 -0.125 0  -0.125 -0.25 0  0 -0.375 0  -0.125 -0.375 0  -0.75 -0.125 0  -0.875 -0.125 0  -0.625 -0.125 0  -0.5 -0.125 0  -0.625 -0.25 0  -0.625 -0.375 0  -0.5 -0.375 0  -0.125 -0.75 0  -0.125 -0.875 0  0 -0.875 0  -0.25 -0.625 0  -0.375 -0.625 0  -0.375 -0.5 0  -0.125 -0.625 0  0 -0.625 0  -0.125 -0.5 0  -0.375 -0.25 0  -0.375 -0.375 0  -0.25 -0.375 0  -0.875 -0.25 0  -1 -0.125 0  -0.75 -0.375 0  -0.625 -0.5 0  -0.875 -0.375 0  -1 -0.375 0  -0.875 -0.5 0  -0.875 -0.875 0  -0.875 -1 0  -1 -0.875 0  -0.75 -0.875 0  -0.625 -1 0  -0.625 -0.875 0  -0.875 -0.75 0  -1 -0.625 0  -0.875 -0.625 0  -0.25 -0.875 0  -0.125 -1 0  -0.375 -0.75 0  -0.5 -0.625 0  -0.375 -0.875 0  -0.375 -1 0  -0.5 -0.875 0  -0.625 -0.625 0  -0.625 -0.75 0  -0.75 -0.625 0  0.0625 0.0625 0  0.0625 0 0  0 0.0625 0  0.125 0.0625 0  0.1875 0 0  0.1875 0.0625 0  0.0625 0.125 0  0 0.1875 0  0.0625 0.1875 0  0.0625 0.375 0  0.0625 0.4375 0  0 0.4375 0  0.125 0.3125 0  0.1875 0.3125 0  0.1875 0.25 0  0.0625 0.3125 0  0 0.3125 0  0.0625 0.25 0  0.375 0.0625 0  0.4375 0.0625 0  0.4375 0 0  0.3125 0.125 0  0.3125 0.1875 0  0.25 0.1875 0  0.3125 0.0625 0  0.3125 0 0  0.25 0.0625 0  0.1875 0.1875 0  0.1875 0.125 0  0.125 0.1875 0  0.875 0.0625 0  0.9375 0 0  0.9375 0.0625 0  0.8125 0.0625 0  0.8125 0 0  0.75 0.0625 0  0.8125 0.125 0  0.8125 0.1875 0  0.75 0.1875 0  0.5625 0.375 0  0.5 0.4375 0  0.5625 0.4375 0  0.5625 0.3125 0  0.5 0.3125 0  0.5625 0.25 0  0.625 0.3125 0  0.6875 0.3125 0  0.6875 0.25 0  0.5625 0.0625 0  0.5 0.0625 0  0.5625 0 0  0.5625 0.125 0  0.5 0.1875 0  0.5625 0.1875 0  0.625 0.0625 0  0.6875 0 0  0.6875 0.0625 0  0.625 0.1875 0  0.6875 0.125 0  0.6875 0.1875 0  0.0625 0.875 0  0 0.9375 0  0.0625 0.9375 0  0.0625 0.8125 0  0 0.8125 0  0.0625 0.75 0  0.125 0.8125 0  0.1875 0.8125 0  0.1875 0.75 0  0.375 0.5625 0  0.4375 0.5 0  0.4375 0.5625 0  0.3125 0.5625 0  0.3125 0.5 0  0.25 0.5625 0  0.3125 0.625 0  0.3125 0.6875 0  0.25 0.6875 0  0.0625 0.5625 0  0.0625 0.5 0  0 0.5625 0  0.125 0.5625 0  0.1875 0.5 0  0.1875 0.5625 0  0.0625 0.625 0  0 0.6875 0  0.0625 0.6875 0  0.1875 0.625 0  0.125 0.6875 0  0.1875 0.6875 0  0.4375 0.4375 0  0.4375 0.375 0  0.4375 0.3125 0  0.375 0.4375 0  0.3125 0.4375 0  0.125 0.4375 0  0.1875 0.375 0  0.25 0.3125 0  0.1875 0.4375 0  0.25 0.4375 0  0.4375 0.125 0  0.375 0.1875 0  0.3125 0.25 0  0.4375 0.1875 0  0.4375 0.25 0  0.3125 0.3125 0  0.375 0.3125 0  0.3125 0.375 0  0.9375 0.125 0  1 0.0625 0  0.875 0.1875 0  0.8125 0.25 0  0.9375 0.1875 0  1 0.1875 0  0.9375 0.25 0  0.625 0.4375 0  0.5625 0.5 0  0.6875 0.375 0  0.75 0.3125 0  0.6875 0.4375 0  0.6875 0.5 0  0.75 0.4375 0  0.9375 0.4375 0  0.9375 0.5 0  1 0.4375 0  0.875 0.4375 0  0.8125 0.5 0  0.8125 0.4375 0  0.9375 0.375 0  1 0.3125 0  0.9375 0.3125 0  0.8125 0.3125 0  0.8125 0.375 0  0.875 0.3125 0  0.9375 0.9375 0  1 0.9375 0  0.9375 1 0  0.9375 0.875 0  1 0.8125 0  0.9375 0.8125 0  0.875 0.9375 0  0.8125 1 0  0.8125 0.9375 0  0.625 0.9375 0  0.5625 0.9375 0  0.5625 1 0  0.6875 0.875 0  0.6875 0.8125 0  0.75 0.8125 0  0.6875 0.9375 0  0.6875 1 0  0.75 0.9375 0  0.9375 0.625 0  0.9375 0.5625 0  1 0.5625 0  0.875 0.6875 0  0.8125 0.6875 0  0.8125 0.75 0  0.9375 0.6875 0  1 0.6875 0  0.9375 0.75 0  0.8125 0.8125 0  0.875 0.8125 0  0.8125 0.875 0  0.125 0.9375 0  0.0625 1 0  0.1875 0.875 0  0.25 0.8125 0  0.1875 0.9375 0  0.1875 1 0  0.25 0.9375 0  0.4375 0.625 0  0.5 0.5625 0  0.375 0.6875 0  0.3125 0.75 0  0.4375 0.6875 0  0.5 0.6875 0  0.4375 0.75 0  0.4375 0.9375 0  0.5 0.9375 0  0.4375 1 0  0.4375 0.875 0  0.5 0.8125 0  0.4375 0.8125 0  0.375 0.9375 0  0.3125 1 0  0.3125 0.9375 0  0.3125 0.8125 0  0.375 0.8125 0  0.3125 0.875 0  0.5625 0.5625 0  0.625 0.5625 0  0.6875 0.5625 0  0.5625 0.625 0  0.5625 0.6875 0  0.5625 0.875 0  0.625 0.8125 0  0.6875 0.75 0  0.5625 0.8125 0  0.5625 0.75 0  0.875 0.5625 0  0.8125 0.5625 0  0.75 0.5625 0  0.8125 0.625 0  0.75 0.6875 0  0.6875 0.625 0  0.6875 0.6875 0  0.625 0.6875 0  -0.0625 0.0625 0  -0.0625 0 0  -0.0625 0.125 0  -0.0625 0.1875 0  -0.125 0.0625 0  -0.1875 0 0  -0.1875 0.0625 0  -0.0625 0.375 0  -0.0625 0.4375 0  -0.0625 0.3125 0  -0.0625 0.25 0  -0.125 0.3125 0  -0.1875 0.3125 0  -0.1875 0.25 0  -0.375 0.0625 0  -0.4375 0.0625 0  -0.4375 0 0  -0.3125 0.125 0  -0.3125 0.1875 0  -0.25 0.1875 0  -0.3125 0.0625 0  -0.3125 0 0  -0.25 0.0625 0  -0.125 0.1875 0  -0.1875 0.1875 0  -0.1875 0.125 0  -0.0625 0.875 0  -0.0625 0.9375 0  -0.0625 0.8125 0  -0.0625 0.75 0  -0.125 0.8125 0  -0.1875 0.8125 0  -0.1875 0.75 0  -0.0625 0.5625 0  -0.0625 0.5 0  -0.0625 0.625 0  -0.0625 0.6875 0  -0.125 0.5625 0  -0.1875 0.5 0  -0.1875 0.5625 0  -0.375 0.5625 0  -0.4375 0.5 0  -0.4375 0.5625 0  -0.3125 0.5625 0  -0.3125 0.5 0  -0.25 0.5625 0  -0.3125 0.625 0  -0.3125 0.6875 0  -0.25 0.6875 0  -0.125 0.6875 0  -0.1875 0.625 0  -0.1875 0.6875 0  -0.875 0.0625 0  -0.9375 0 0  -0.9375 0.0625 0  -0.8125 0.0625 0  -0.8125 0 0  -0.75 0.0625 0  -0.8125 0.125 0  -0.8125 0.1875 0  -0.75 0.1875 0  -0.5625 0.375 0  -0.5 0.4375 0  -0.5625 0.4375 0  -0.5625 0.3125 0  -0.5 0.3125 0  -0.5625 0.25 0  -0.625 0.3125 0  -0.6875 0.3125 0  -0.6875 0.25 0  -0.5625 0.0625 0  -0.5 0.0625 0  -0.5625 0 0  -0.5625 0.125 0  -0.5 0.1875 0  -0.5625 0.1875 0  -0.625 0.0625 0  -0.6875 0 0  -0.6875 0.0625 0  -0.625 0.1875 0  -0.6875 0.125 0  -0.6875 0.1875 0  -0.125 0.4375 0  -0.1875 0.375 0  -0.25 0.3125 0  -0.1875 0.4375 0  -0.25 0.4375 0  -0.4375 0.4375 0  -0.375 0.4375 0  -0.3125 0.4375 0  -0.4375 0.375 0  -0.4375 0.3125 0  -0.4375 0.125 0  -0.375 0.1875 0  -0.3125 0.25 0  -0.4375 0.1875 0  -0.4375 0.25 0  -0.3125 0.3125 0  -0.3125 0.375 0  -0.375 0.3125 0  -0.125 0.9375 0  -0.0625 1 0  -0.1875 0.875 0  -0.25 0.8125 0  -0.1875 0.9375 0  -0.1875 1 0  -0.25 0.9375 0  -0.4375 0.625 0  -0.5 0.5625 0  -0.375 0.6875 0  -0.3125 0.75 0  -0.4375 0.6875 0  -0.5 0.6875 0  -0.4375 0.75 0  -0.4375 0.9375 0  -0.5 0.9375 0  -0.4375 1 0  -0.4375 0.875 0  -0.5 0.8125 0  -0.4375 0.8125 0  -0.375 0.9375 0  -0.3125 1 0  -0.3125 0.9375 0  -0.3125 0.8125 0  -0.375 0.8125 0  -0.3125 0.875 0  -0.9375 0.9375 0  -0.9375 1 0  -1 0.9375 0  -0.875 0.9375 0  -0.8125 1 0  -0.8125 0.9375 0  -0.9375 0.875 0  -1 0.8125 0  -0.9375 0.8125 0  -0.9375 0.625 0  -0.9375 0.5625 0  -1 0.5625 0  -0.875 0.6875 0  -0.8125 0.6875 0  -0.8125 0.75 0  -0.9375 0.6875 0  -1 0.6875 0  -0.9375 0.75 0  -0.625 0.9375 0  -0.5625 0.9375 0  -0.5625 1 0  -0.6875 0.875 0  -0.6875 0.8125 0  -0.75 0.8125 0  -0.6875 0.9375 0  -0.6875 1 0  -0.75 0.9375 0  -0.8125 0.8125 0  -0.8125 0.875 0  -0.875 0.8125 0  -0.9375 0.125 0  -1 0.0625 0  -0.875 0.1875 0  -0.8125 0.25 0  -0.9375 0.1875 0  -1 0.1875 0  -0.9375 0.25 0  -0.625 0.4375 0  -0.5625 0.5 0  -0.6875 0.375 0  -0.75 0.3125 0  -0.6875 0.4375 0  -0.6875 0.5 0  -0.75 0.4375 0  -0.9375 0.4375 0  -0.9375 0.5 0  -1 0.4375 0  -0.875 0.4375 0  -0.8125 0.5 0  -0.8125 0.4375 0  -0.9375 0.375 0  -1 0.3125 0  -0.9375 0.3125 0  -0.8125 0.3125 0  -0.8125 0.375 0  -0.875 0.3125 0  -0.5625 0.5625 0  -0.5625 0.625 0  -0.5625 0.6875 0  -0.625 0.5625 0  -0.6875 0.5625 0  -0.875 0.5625 0  -0.8125 0.625 0  -0.75 0.6875 0  -0.8125 0.5625 0  -0.75 0.5625 0  -0.5625 0.875 0  -0.5625 0.8125 0  -0.5625 0.75 0  -0.625 0.8125 0  -0.6875 0.75 0  -0.625 0.6875 0  -0.6875 0.6875 0  -0.6875 0.625 0  -0.0625 -0.0625 0  0 -0.0625 0  -0.125 -0.0625 0  -0.1875 -0.0625 0  -0.0625 -0.125 0  0 -0.1875 0  -0.0625 -0.1875 0  -0.375 -0.0625 0  -0.4375 -0.0625 0  -0.3125 -0.0625 0  -0.25 -0.0625 0  -0.3125 -0.125 0  -0.3125 -0.1875 0  -0.25 -0.1875 0 
[...]
<PointData  Vectors="u"> 
<DataArray  type="Float32"  Name="u"  NumberOfComponents="3" format="ascii">-8.305505e-02 0.000000e+00 0.000000e+00  0.000000e+00 0.000000e+00 0.000000e+00  0.000000e+00 0.000000e+00 0.000000e+00  0.000000e+00 -2.202939e+00 0.000000e+00  0.000000e+00 0.000000e+00 0.000000e+00  2.192267e+00 0.000000e+00 0.000000e+00  0.000000e+00 0.000000e+00 0.000000e+00  0.000000e+00 0.000000e+00 0.000000e+00  -3.238947e-01 -3.044485e-01 0.000000e+00  -5.802798e-02 -5.861589e-01 0.000000e+00  0.000000e+00 1.037407e-01 0.000000e+00  0.000000e+00 -1.430808e+00 0.000000e+00  -4.555051e-01 0.000000e+00 0.000000e+00  6.188148e-01 -6.266652e-01 0.000000e+00  5.728983e-01 5.114732e-02 0.000000e+00  1.878443e+00 0.000000e+00 0.000000e+00  0.000000e+00 -1.885582e+00 0.000000e+00  2.955468e-01 3.215902e-01 0.000000e+00  -1.146098e-01 0.000000e+00 0.000000e+00  0.000000e+00 4.544947e-01 0.000000e+00  1.423217e+00 0.000000e+00 0.000000e+00  -1.573980e-01 -3.803683e-02 0.000000e+00  0.000000e+00 1.131199e-01 0.000000e+00  -6.696016e-02 -1.116359e-01 0.000000e+00  -2.109667e-01 -9.145080e-04 0.000000e+00  0.000000e+00 6.537469e-02 0.000000e+00  -2.524173e-01 1.102648e-02 0.000000e+00  -2.199543e-01 -4.540204e-01 0.000000e+00  -3.566955e-02 -1.291688e+00 0.000000e+00  -1.728332e-01 -1.090713e+00 0.000000e+00  -3.986607e-01 -1.505039e-01 0.000000e+00  -2.848504e-01 0.000000e+00 0.000000e+00  -3.426383e-01 -4.147683e-01 0.000000e+00  -3.975458e-01 0.000000e+00 0.000000e+00  0.000000e+00 -7.743138e-01 0.000000e+00  -2.706913e-01 -7.868786e-01 0.000000e+00  0.000000e+00 -1.924619e+00 0.000000e+00  1.786675e-01 -1.920040e-01 0.000000e+00  9.349862e-02 5.490653e-02 0.000000e+00  2.095694e-01 -6.635847e-01 0.000000e+00  1.561554e-01 -1.342420e+00 0.000000e+00  6.522220e-01 -2.176580e-01 0.000000e+00  1.280430e+00 3.237521e-02 0.000000e+00  1.332368e+00 -1.600332e-01 0.000000e+00  4.161939e-01 -1.184598e+00 0.000000e+00  0.000000e+00 -2.208935e+00 0.000000e+00  7.529419e-01 -7.567771e-01 0.000000e+00  0.000000e+00 -1.171358e+00 0.000000e+00  1.167591e+00 0.000000e+00 0.000000e+00  1.177250e+00 -4.201522e-01 0.000000e+00  2.199313e+00 0.000000e+00 0.000000e+00  2.286532e-02 1.523715e-01 0.000000e+00  -1.306132e-01 0.000000e+00 0.000000e+00  4.418495e-01 2.156337e-01 0.000000e+00  1.080234e+00 1.705274e-01 0.000000e+00  -9.275068e-03 2.089701e-01 0.000000e+00  -7.071478e-02 0.000000e+00 0.000000e+00  -1.614546e-02 2.514250e-01 0.000000e+00  7.789474e-01 2.692907e-01 0.000000e+00  1.914671e+00 0.000000e+00 0.000000e+00  4.105336e-01 3.417788e-01 0.000000e+00  7.702327e-01 0.000000e+00 0.000000e+00  0.000000e+00 3.968571e-01 0.000000e+00  1.458603e-01 3.973612e-01 0.000000e+00  0.000000e+00 2.841074e-01 0.000000e+00  -7.679619e-02 5.588568e-02 0.000000e+00  -6.510482e-02 1.942894e-02 0.000000e+00  0.000000e+00 1.009921e-01 0.000000e+00  -1.211791e-01 -6.993594e-02 0.000000e+00  -6.432626e-02 -3.173928e-01 0.000000e+00  -1.436919e-01 -2.658658e-01 0.000000e+00  -8.819308e-02 7.421517e-02 0.000000e+00  0.000000e+00 1.126351e-01 0.000000e+00  -1.004978e-01 8.001756e-02 0.000000e+00  -1.329962e-01 5.170840e-02 0.000000e+00  -1.418607e-01 2.921440e-02 0.000000e+00  0.000000e+00 3.618156e-02 0.000000e+00  -2.328666e-01 7.848841e-03 0.000000e+00  -3.168329e-01 -9.099711e-02 0.000000e+00  -2.845760e-01 -1.290270e-01 0.000000e+00  -1.231095e-01 6.772434e-02 0.000000e+00  0.000000e+00 8.786359e-02 0.000000e+00  -1.122533e-01 7.731906e-02 0.000000e+00  -1.100954e-01 -1.206730e+00 0.000000e+00  -6.455377e-02 -1.625767e+00 0.000000e+00  -1.957412e-02 -1.722447e+00 0.000000e+00  -2.109296e-01 -7.466250e-01 0.000000e+00  -2.711022e-01 -6.407952e-01 0.000000e+00  -2.768454e-01 -3.802734e-01 0.000000e+00  -1.378943e-01 -8.386283e-01 0.000000e+00  -4.845436e-02 -9.121246e-01 0.000000e+00  -1.489527e-01 -5.238434e-01 0.000000e+00  -2.470478e-01 -1.706524e-01 0.000000e+00  -2.017139e-01 -2.162539e-01 0.000000e+00  -1.862088e-01 -1.575143e-02 0.000000e+00  -2.697849e-01 8.535360e-03 0.000000e+00  -1.495816e-01 0.000000e+00 0.000000e+00  -3.451155e-01 -5.651647e-02 0.000000e+00  -3.639216e-01 -2.275714e-01 0.000000e+00  -3.700138e-01 -2.595401e-02 0.000000e+00  -3.916129e-01 0.000000e+00 0.000000e+00  -4.290682e-01 -7.424086e-02 0.000000e+00  -2.310945e-01 -2.992206e-01 0.000000e+00  0.000000e+00 -3.994052e-01 0.000000e+00  -2.478689e-01 0.000000e+00 0.000000e+00  -2.120523e-01 -5.831278e-01 0.000000e+00  0.000000e+00 -1.119880e+00 0.000000e+00  -1.903816e-01 -8.479321e-01 0.000000e+00  -3.718932e-01 -2.112865e-01 0.000000e+00  -4.621873e-01 0.000000e+00 0.000000e+00  -4.338807e-01 -1.361369e-01 0.000000e+00  -1.033874e-01 -1.483913e+00 0.000000e+00  0.000000e+00 -2.094165e+00 0.000000e+00  -2.257649e-01 -9.492051e-01 0.000000e+00  -3.214454e-01 -5.245287e-01 0.000000e+00  -1.367886e-01 -1.303226e+00 0.000000e+00  0.000000e+00 -1.701209e+00 0.000000e+00  -1.655276e-01 -1.089502e+00 0.000000e+00  -3.643285e-01 -4.003246e-01 0.000000e+00  -3.092162e-01 -6.076252e-01 0.000000e+00  -4.014457e-01 -2.702267e-01 0.000000e+00  -3.022011e-03 -1.616697e-02 0.000000e+00  -4.390686e-02 4.705311e-02 0.000000e+00  2.757932e-02 -1.558250e-01 0.000000e+00  4.823355e-02 -3.650628e-01 0.000000e+00  1.394909e-01 -4.133680e-02 0.000000e+00  3.022777e-01 5.526478e-02 0.000000e+00  3.509080e-01 -5.851795e-02 0.000000e+00  5.250692e-02 -1.339333e+00 0.000000e+00  3.241011e-02 -1.767312e+00 0.000000e+00  6.128114e-02 -9.611964e-01 0.000000e+00  5.960569e-02 -6.352880e-01 0.000000e+00  1.946063e-01 -9.785272e-01 0.000000e+00  3.541748e-01 -9.564299e-01 0.000000e+00  3.954772e-01 -6.631630e-01 0.000000e+00  1.328448e+00 -5.616423e-02 0.000000e+00  1.756826e+00 -3.422025e-02 0.000000e+00  1.711633e+00 1.793922e-02 0.000000e+00  9.679315e-01 -2.005157e-01 0.000000e+00  9.472124e-01 -3.601640e-01 0.000000e+00  6.534626e-01 -4.035438e-01 0.000000e+00  9.496135e-01 -6.687807e-02 0.000000e+00  9.000823e-01 4.343717e-02 0.000000e+00  6.226523e-01 -6.733848e-02 0.000000e+00  2.033551e-01 -4.003165e-01 0.000000e+00  4.050505e-01 -4.152535e-01 0.000000e+00  3.879890e-01 -2.138807e-01 0.000000e+00  9.202519e-02 -1.753122e+00 0.000000e+00  0.000000e+00 -2.243454e+00 0.000000e+00  2.769449e-01 -1.293421e+00 0.000000e+00  5.416554e-01 -8.872212e-01 0.000000e+00  1.600593e-01 -1.672502e+00 0.000000e+00  0.000000e+00 -2.092134e+00 0.000000e+00  2.372412e-01 -1.517788e+00 0.000000e+00  5.281152e-01 -5.300297e-01 0.000000e+00  6.450986e-01 0.000000e+00 0.000000e+00  0.000000e+00 -6.470050e-01 0.000000e+00  9.507029e-01 -4.230035e-01 0.000000e+00  1.575873e+00 0.000000e+00 0.000000e+00  1.275541e+00 -3.260974e-01 0.000000e+00  4.210676e-01 -9.544879e-01 0.000000e+00  0.000000e+00 -1.581403e+00 0.000000e+00  3.241346e-01 -1.281104e+00 0.000000e+00  1.743392e+00 -9.394797e-02 0.000000e+00  2.233098e+00 0.000000e+00 0.000000e+00  1.284580e+00 -2.809103e-01 0.000000e+00  8.796390e-01 -5.475762e-01 0.000000e+00  1.663895e+00 -1.620343e-01 0.000000e+00  2.083607e+00 0.000000e+00 0.000000e+00  1.510595e+00 -2.392231e-01 0.000000e+00  7.577826e-01 -7.635715e-01 0.000000e+00  1.002571e+00 -5.786459e-01 0.000000e+00  5.747439e-01 -1.008228e+00 0.000000e+00  -7.655411e-02 6.878882e-02 0.000000e+00  -1.233232e-01 0.000000e+00 0.000000e+00  5.260538e-02 1.129472e-01 0.000000e+00  2.510485e-01 1.366607e-01 0.000000e+00  -9.099477e-02 8.458161e-02 0.000000e+00  -1.265468e-01 0.000000e+00 0.000000e+00  -9.358348e-02 9.855877e-02 0.000000e+00  1.195611e+00 1.072736e-01 0.000000e+00  1.615091e+00 6.314240e-02 0.000000e+00  8.267320e-01 1.336627e-01 0.000000e+00  5.107605e-01 1.433114e-01 0.000000e+00  7.354591e-01 2.075509e-01 0.000000e+00  6.308506e-01 2.685089e-01 0.000000e+00  3.695562e-01 2.736690e-01 0.000000e+00  -5.698940e-02 1.324449e-01 0.000000e+00  -3.185138e-02 1.414197e-01 0.000000e+00  -3.884511e-02 0.000000e+00 0.000000e+00  -1.550962e-02 2.315081e-01 0.000000e+00  8.373063e-02 3.151637e-01 0.000000e+00  1.194795e-01 2.822200e-01 0.000000e+00  -7.567342e-02 1.223402e-01 0.000000e+00  -9.591938e-02 0.000000e+00 0.000000e+00  -8.800076e-02 1.110832e-01 0.000000e+00  2.027330e-01 1.967250e-01 0.000000e+00  1.589782e-01 2.436257e-01 0.000000e+00  3.045640e-03 1.831100e-01 0.000000e+00  1.473833e+00 1.022202e-01 0.000000e+00  2.083631e+00 0.000000e+00 0.000000e+00  9.398149e-01 2.239488e-01 0.000000e+00  5.161820e-01 3.194930e-01 0.000000e+00  1.294167e+00 1.358566e-01 0.000000e+00  1.692260e+00 0.000000e+00 0.000000e+00  1.081825e+00 1.647991e-01 0.000000e+00  2.971258e-01 2.307040e-01 0.000000e+00  0.000000e+00 2.475001e-01 0.000000e+00  3.973294e-01 0.000000e+00 0.000000e+00  2.091365e-01 3.711623e-01 0.000000e+00  0.000000e+00 4.612724e-01 0.000000e+00  1.339007e-01 4.329065e-01 0.000000e+00  5.790075e-01 2.115959e-01 0.000000e+00  1.113936e+00 0.000000e+00 0.000000e+00  8.419266e-01 1.898128e-01 0.000000e+00  -1.109908e-02 2.689829e-01 0.000000e+00  0.000000e+00 1.491744e-01 0.000000e+00  5.162499e-02 3.438658e-01 0.000000e+00  2.207219e-01 3.622279e-01 0.000000e+00  2.349451e-02 3.689896e-01 0.000000e+00  0.000000e+00 3.906597e-01 0.000000e+00  7.189672e-02 4.279877e-01 0.000000e+00  3.938493e-01 3.628516e-01 0.000000e+00  2.658117e-01 4.002889e-01 0.000000e+00  6.014390e-01 3.081352e-01 0.000000e+00  -4.709523e-02 7.332129e-02 0.000000e+00  0.000000e+00 8.742147e-02 0.000000e+00  -6.342805e-02 4.617294e-02 0.000000e+00  -4.280350e-02 8.920460e-02 0.000000e+00  0.000000e+00 1.091116e-01 0.000000e+00  -4.341333e-02 9.835553e-02 0.000000e+00  -7.207843e-02 3.981964e-02 0.000000e+00  -6.664262e-02 -3.551955e-02 0.000000e+00  -8.740129e-02 -1.514013e-02 0.000000e+00  -1.073782e-01 -2.916667e-01 0.000000e+00  -1.081487e-01 -4.165251e-01 0.000000e+00  -6.160082e-02 -4.443344e-01 0.000000e+00  -1.347467e-01 -1.597211e-01 0.000000e+00  -1.605346e-01 -1.386131e-01 0.000000e+00  -1.406094e-01 -5.265724e-02 0.000000e+00  -1.039329e-01 -1.824343e-01 0.000000e+00  -6.614429e-02 -2.061309e-01 0.000000e+00  -9.749695e-02 -8.981599e-02 0.000000e+00  -5.125756e-02 1.044072e-01 0.000000e+00  -5.416019e-02 1.016754e-01 0.000000e+00  0.000000e+00 1.091144e-01 0.000000e+00  -9.436483e-02 7.835132e-02 0.000000e+00  -1.361458e-01 3.448946e-02 0.000000e+00  -1.257586e-01 2.679950e-02 0.000000e+00  -4.836031e-02 1.050575e-01 0.000000e+00  0.000000e+00 1.140900e-01 0.000000e+00  -4.561963e-02 1.032522e-01 0.000000e+00  -1.146267e-01 1.626866e-02 0.000000e+00  -8.221095e-02 6.701837e-02 0.000000e+00  -1.022875e-01 2.376505e-03 0.000000e+00  -7.180448e-02 3.440431e-02 0.000000e+00  0.000000e+00 1.898996e-02 0.000000e+00  -7.382707e-02 1.807576e-02 0.000000e+00  -6.964364e-02 4.900851e-02 0.000000e+00  0.000000e+00 5.163093e-02 0.000000e+00  -6.735183e-02 6.192144e-02 0.000000e+00  -1.375616e-01 4.128546e-02 0.000000e+00  -2.020377e-01 2.845430e-02 0.000000e+00  -1.952397e-01 3.473956e-02 0.000000e+00  -3.012617e-01 -1.095758e-01 0.000000e+00  -3.090190e-01 -2.109931e-01 0.000000e+00  -3.279876e-01 -1.826156e-01 0.000000e+00  -2.656031e-01 -4.722915e-02 0.000000e+00  -2.515337e-01 -5.888891e-02 0.000000e+00  -2.222323e-01 4.178755e-03 0.000000e+00  -2.787993e-01 -3.677068e-02 0.000000e+00  -2.912130e-01 -2.749250e-02 0.000000e+00  -2.429185e-01 1.013128e-02 0.000000e+00  -5.975447e-02 9.076746e-02 0.000000e+00  -5.700251e-02 9.708557e-02 0.000000e+00  0.000000e+00 9.663625e-02 0.000000e+00  -1.178002e-01 7.333655e-02 0.000000e+00  -1.640843e-01 4.458024e-02 0.000000e+00  -1.724811e-01 4.442817e-02 0.000000e+00  -6.240156e-02 8.278859e-02 0.000000e+00  0.000000e+00 7.744477e-02 0.000000e+00  -6.493590e-02 7.317432e-02 0.000000e+00  -1.804639e-01 4.271796e-02 0.000000e+00  -1.281763e-01 6.051470e-02 0.000000e+00  -1.880478e-01 3.948731e-02 0.000000e+00  -4.287451e-02 -1.680171e+00 0.000000e+00  -1.023581e-02 -1.956516e+00 0.000000e+00  -2.289343e-02 -1.912226e+00 0.000000e+00  -6.003365e-02 -1.460529e+00 0.000000e+00  -2.804506e-02 -1.500783e+00 0.000000e+00  -7.446195e-02 -1.253474e+00 0.000000e+00  -8.961785e-02 -1.409996e+00 0.000000e+00  -1.169502e-01 -1.349994e+00 0.000000e+00  -1.428069e-01 -1.152234e+00 0.000000e+00  -2.786727e-01 -5.043786e-01 0.000000e+00  -3.013942e-01 -3.425471e-01 0.000000e+00  -3.045648e-01 -4.573462e-01 0.000000e+00  -2.502766e-01 -5.499275e-01 0.000000e+00  -2.498592e-01 -4.174924e-01 0.000000e+00  -2.189497e-01 -5.937043e-01 0.000000e+00  -2.424195e-01 -6.952001e-01 0.000000e+00  -2.259239e-01 -8.529405e-01 0.000000e+00  -1.956488e-01 -9.124014e-01 0.000000e+00  -1.021617e-01 -7.102507e-01 0.000000e+00  -1.063916e-01 -5.562523e-01 0.000000e+00  -5.364120e-02 -7.422520e-01 0.000000e+00  -1.454707e-01 -6.743844e-01 0.000000e+00  -1.865477e-01 -4.895953e-01 0.000000e+00  -1.841991e-01 -6.353441e-01 0.000000e+00  -9.545825e-02 -8.780385e-01 0.000000e+00  -4.246718e-02 -1.095379e+00 0.000000e+00  -8.624497e-02 -1.059221e+00 0.000000e+00  -1.762323e-01 -7.946140e-01 0.000000e+00  -1.261412e-01 -1.016184e+00 0.000000e+00  -1.624969e-01 -9.670182e-01 0.000000e+00  -2.884979e-01 -2.397573e-01 0.000000e+00  -2.665907e-01 -1.493708e-01 0.000000e+00  -2.364585e-01 -7.180967e-02 0.000000e+00  -2.661274e-01 -2.688804e-01 0.000000e+00  -2.415163e-01 -2.983264e-01 0.000000e+00  -1.483737e-01 -3.874780e-01 0.000000e+00  -1.747293e-01 -2.406116e-01 0.000000e+00  -1.827623e-01 -1.193421e-01 0.000000e+00  -1.833800e-01 -3.578314e-01 0.000000e+00  -2.141530e-01 -3.280250e-01 0.000000e+00  -1.064782e-01 7.959390e-02 0.000000e+00  -1.459528e-01 3.980396e-02 0.000000e+00  -1.724356e-01 -2.583655e-02 0.000000e+00  -1.552516e-01 4.308884e-02 0.000000e+00  -1.989957e-01 -7.511994e-03 0.000000e+00  -2.024279e-01 -1.018828e-01 0.000000e+00  -2.201845e-01 -8.609359e-02 0.000000e+00  -2.255888e-01 -1.929308e-01 0.000000e+00  -1.458758e-01 1.546120e-02 0.000000e+00  -7.570891e-02 0.000000e+00 0.000000e+00  -2.084299e-01 2.059647e-02 0.000000e+00  -2.613745e-01 1.050896e-02 0.000000e+00  -2.143923e-01 1.112478e-02 0.000000e+00  -2.198856e-01 0.000000e+00 0.000000e+00  -2.776250e-01 5.051716e-03 0.000000e+00  -3.456266e-01 -1.546605e-01 0.000000e+00  -3.446563e-01 -2.660886e-01 0.000000e+00  -3.314210e-01 -7.329898e-02 0.000000e+00  -3.029026e-01 -1.940621e-02 0.000000e+00  -3.621005e-01 -1.271794e-01 0.000000e+00  -3.818769e-01 -1.890040e-01 0.000000e+00  -3.775270e-01 -1.002427e-01 0.000000e+00  -4.181330e-01 -2.368680e-02 0.000000e+00  -4.427810e-01 -3.678216e-02 0.000000e+00  -4.298170e-01 0.000000e+00 0.000000e+00  -4.055156e-01 -4.838015e-02 0.000000e+00  -4.143708e-01 -1.122013e-01 0.000000e+00  -3.919842e-01 -7.394029e-02 0.000000e+00  -3.812385e-01 -1.234834e-02 0.000000e+00  -3.426910e-01 0.000000e+00 0.000000e+00  -3.338228e-01 -2.769888e-03 0.000000e+00  -3.138997e-01 -1.254954e-02 0.000000e+00  -3.579715e-01 -4.070849e-02 0.000000e+00  -3.242119e-01 -6.980145e-03 0.000000e+00  -1.324206e-01 -1.761156e-01 0.000000e+00  -1.370005e-01 0.000000e+00 0.000000e+00  0.000000e+00 -2.024681e-01 0.000000e+00  -2.397509e-01 -1.512977e-01 0.000000e+00  -3.341744e-01 0.000000e+00 0.000000e+00  -3.234850e-01 -1.280616e-01 0.000000e+00  -1.275332e-01 -3.478169e-01 0.000000e+00  0.000000e+00 -5.902170e-01 0.000000e+00  -1.223327e-01 -5.145965e-01 0.000000e+00  -1.046137e-01 -9.800289e-01 0.000000e+00  -9.788714e-02 -1.121622e+00 0.000000e+00  0.000000e+00 -1.280028e+00 0.000000e+00  -2.015761e-01 -7.181664e-01 0.000000e+00  -2.730797e-01 -6.119319e-01 0.000000e+00  -2.869332e-01 -4.960337e-01 0.000000e+00  -1.109044e-01 -8.312629e-01 0.000000e+00  0.000000e+00 -9.510828e-01 0.000000e+00  -1.167992e-01 -6.759276e-01 0.000000e+00  -4.485341e-01 -6.819781e-02 0.000000e+00  -4.534757e-01 -5.162458e-02 0.000000e+00  -4.668872e-01 0.000000e+00 0.000000e+00  -4.120005e-01 -1.720824e-01 0.000000e+00  -3.967172e-01 -2.565066e-01 0.000000e+00  -3.577429e-01 -3.141774e-01 0.000000e+00  -4.263001e-01 -8.647997e-02 0.000000e+00  -4.396501e-01 0.000000e+00 0.000000e+00  -3.851482e-01 -1.064446e-01 0.000000e+00  -2.999082e-01 -3.764801e-01 0.000000e+00  -3.120747e-01 -2.536876e-01 0.000000e+00  -2.218745e-01 -4.433187e-01 0.000000e+00  -3.473793e-02 -1.853868e+00 0.000000e+00  0.000000e+00 -2.156551e+00 0.000000e+00  -8.469575e-02 -1.560078e+00 0.000000e+00  -1.421849e-01 -1.281290e+00 0.000000e+00  -4.579783e-02 -1.782312e+00 0.000000e+00  0.000000e+00 -2.016564e+00 0.000000e+00  -5.610795e-02 -1.698401e+00 0.000000e+00  -2.973381e-01 -5.837950e-01 0.000000e+00  -3.283143e-01 -4.090640e-01 0.000000e+00  -2.536335e-01 -7.891723e-01 0.000000e+00  -2.004091e-01 -1.022833e+00 0.000000e+00  -2.790683e-01 -7.215703e-01 0.000000e+00  -3.024940e-01 -6.505545e-01 0.000000e+00  -2.491225e-01 -8.703849e-01 0.000000e+00  -8.294692e-02 -1.380702e+00 0.000000e+00  -9.068049e-02 -1.255404e+00 0.000000e+00  0.000000e+00 -1.571466e+00 0.000000e+00  -1.516915e-01 -1.200155e+00 0.000000e+00  -2.252841e-01 -9.332647e-01 0.000000e+00  -2.068728e-01 -1.029986e+00 0.000000e+00  -7.463838e-02 -1.496804e+00 0.000000e+00  0.000000e+00 -1.819211e+00 0.000000e+00  -6.570727e-02 -1.602963e+00 0.000000e+00  -1.654784e-01 -1.204610e+00 0.000000e+00  -1.869886e-01 -1.120631e+00 0.000000e+00  -1.207199e-01 -1.398048e+00 0.000000e+00  -3.502216e-01 -3.597313e-01 0.000000e+00  -3.705311e-01 -3.095281e-01 0.000000e+00  -3.894378e-01 -2.586273e-01 0.000000e+00  -3.436983e-01 -4.632849e-01 0.000000e+00  -3.241477e-01 -5.765017e-01 0.000000e+00  -1.783937e-01 -9.718968e-01 0.000000e+00  -2.582597e-01 -7.237427e-01 0.000000e+00  -3.264978e-01 -5.127054e-01 0.000000e+00  -2.423681e-01 -8.310133e-01 0.000000e+00  -2.906646e-01 -6.991495e-01 0.000000e+00  -4.390522e-01 -1.035066e-01 0.000000e+00  -4.236052e-01 -1.554325e-01 0.000000e+00  -4.070921e-01 -2.072023e-01 0.000000e+00  -4.182023e-01 -2.035618e-01 0.000000e+00  -3.803911e-01 -3.394571e-01 0.000000e+00  -3.835268e-01 -3.358929e-01 0.000000e+00  -3.629358e-01 -4.206395e-01 0.000000e+00  -3.442363e-01 -4.997564e-01 0.000000e+00  -5.843084e-02 3.173720e-02 0.000000e+00  -7.959969e-02 3.620992e-02 0.000000e+00  -4.442161e-02 -7.208151e-06 0.000000e+00  -3.435152e-02 -5.669866e-02 0.000000e+00  -2.258110e-02 2.440681e-02 0.000000e+00  1.495789e-02 5.231697e-02 0.000000e+00  3.708348e-02 1.841542e-02 0.000000e+00  -1.289389e-02 -3.422381e-01 0.000000e+00  -7.509529e-03 -4.701548e-01 0.000000e+00  -1.908710e-02 -2.298813e-01 0.000000e+00  -2.615674e-02 -1.341710e-01 0.000000e+00  3.906914e-02 -2.523799e-01 0.000000e+00  1.095976e-01 -2.724525e-01 0.000000e+00  9.572149e-02 -1.753953e-01 0.000000e+00  3.274563e-01 3.086893e-03 0.000000e+00  4.563320e-01 -1.003527e-03 0.000000e+00  4.302468e-01 5.368792e-02 0.000000e+00  2.372331e-01 -5.092355e-02 0.000000e+00  2.583966e-01 -1.215944e-01 0.000000e+00  1.605370e-01 -1.094184e-01 0.000000e+00  2.138991e-01 7.747632e-03 0.000000e+00  1.897121e-01 5.574725e-02 0.000000e+00  1.166419e-01 1.288286e-02 0.000000e+00  1.363705e-02 -7.660353e-02 0.000000e+00  7.869143e-02 -9.432374e-02 0.000000e+00  5.887849e-02 -2.979073e-02 0.000000e+00  5.513084e-03 -1.751814e+00 0.000000e+00  3.340690e-03 -1.985901e+00 0.000000e+00  6.581018e-03 -1.529995e+00 0.000000e+00  6.597658e-03 -1.320625e+00 0.000000e+00  4.393216e-02 -1.547211e+00 0.000000e+00  8.416545e-02 -1.551532e+00 0.000000e+00  1.022867e-01 -1.346910e+00 0.000000e+00  8.023232e-04 -7.696664e-01 0.000000e+00  -2.934939e-03 -6.128351e-01 0.000000e+00  3.664613e-03 -9.401613e-01 0.000000e+00  5.610670e-03 -1.123923e+00 0.000000e+00  6.169874e-02 -7.915290e-01 0.000000e+00  1.302649e-01 -6.525380e-01 0.000000e+00  1.295781e-01 -8.068931e-01 0.000000e+00  3.790694e-01 -8.042261e-01 0.000000e+00  5.024393e-01 -6.498509e-01 0.000000e+00  4.783615e-01 -7.838828e-01 0.000000e+00  2.879645e-01 -8.142144e-01 0.000000e+00  2.978946e-01 -6.674422e-01 0.000000e+00  2.048842e-01 -8.147819e-01 0.000000e+00  2.709821e-01 -9.728925e-01 0.000000e+00  2.465565e-01 -1.143208e+00 0.000000e+00  1.784547e-01 -1.154501e+00 0.000000e+00  5.825265e-02 -1.143905e+00 0.00000