<?xml version="1.0"?>
<VTKFile type="UnstructuredGrid"  version="0.1"  >
<UnstructuredGrid>
<Piece  NumberOfPoints="65" NumberOfCells="96">
<Points>
<DataArray  type="Float64"  NumberOfComponents="3"  format="ascii">0 0 0  1 0 0  1 1 0  0 1 0  -1 1 0  -1 0 0  -1 -1 0  0 -1 0  0.5 0.5 0  0 0.5 0  0.5 0 0  0.5 1 0  1 0.5 0  -0.5 0.5 0  -0.5 0 0  -1 0.5 0  -0.5 1 0  -0.5 -0.5 0  0 -0.5 0  -0.5 -1 0  -1 -0.5 0  0.25 0.25 0  0.25 0 0  0 0.25 0  0.5 0.25 0  0.75 0 0  0.75 0.25 0  0.25 0.5 0  0 0.75 0  0.25 0.75 0  0.75 0.5 0  1 0.25 0  0.75 0.75 0  1 0.75 0  0.75 1 0  0.5 0.75 0  0.25 1 0  -0.25 0.25 0  -0.25 0 0  -0.25 0.5 0  -0.25 0.75 0  -0.5 0.25 0  -0.75 0 0  -0.75 0.25 0  -0.5 0.75 0  -0.25 1 0  -0.75 0.75 0  -0.75 1 0  -1 0.75 0  -0.75 0.5 0  -1 0.25 0  -0.25 -0.25 0  0 -0.25 0  -0.5 -0.25 0  -0.75 -0.25 0  -0.25 -0.5 0  0 -0.75 0  -0.25 -0.75 0  -0.75 -0.5 0  -1 -0.25 0  -0.75 -0.75 0  -1 -0.75 0  -0.75 -1 0  -0.5 -0.75 0  -0.25 -1 0  </DataArray>
</Points>
<Cells>
<DataArray  type="UInt32"  Name="connectivity"  format="ascii">0 22 23  9 21 23  10 21 22  21 22 23  1 25 26  8 24 26  10 24 25  24 25 26  3 28 29  8 27 29  9 27 28  27 28 29  8 24 27  9 21 27  10 21 24  21 24 27  1 26 31  8 26 30  12 30 31  26 30 31  2 33 34  11 32 34  12 32 33  32 33 34  3 29 36  8 29 35  11 35 36  29 35 36  8 30 35  11 32 35  12 30 32  30 32 35  0 23 38  9 23 37  14 37 38  23 37 38  3 28 40  9 28 39  13 39 40  28 39 40  5 42 43  13 41 43  14 41 42  41 42 43  9 37 39  13 39 41  14 37 41  37 39 41  3 40 45  13 40 44  16 44 45  40 44 45  4 47 48  15 46 48  16 46 47  46 47 48  5 43 50  13 43 49  15 49 50  43 49 50  13 44 49  15 46 49  16 44 46  44 46 49  0 38 52  14 38 51  18 51 52  38 51 52  5 42 54  14 42 53  17 53 54  42 53 54  7 56 57  17 55 57  18 55 56  55 56 57  14 51 53  17 53 55  18 51 55  51 53 55  5 54 59  17 54 58  20 58 59  54 58 59  6 61 62  19 60 62  20 60 61  60 61 62  7 57 64  17 57 63  19 63 64  57 63 64  17 58 63  19 60 63  20 58 60  58 60 63  </DataArray>
<DataArray  type="UInt32"  Name="offsets"  format="ascii">3 6 9 12 15 18 21 24 27 30 33 36 39 42 45 48 51 54 57 60 63 66 69 72 75 78 81 84 87 90 93 96 99 102 105 108 111 114 117 120 123 126 129 132 135 138 141 144 147 150 153 156 159 162 165 168 171 174 177 180 183 186 189 192 195 198 201 204 207 210 213 216 219 222 225 228 231 234 237 240 243 246 249 252 255 258 261 264 267 270 273 276 279 282 285 288 </DataArray>
<DataArray  type="UInt8"  Name="types"  format="ascii">5 5 5 5 5 5 5 5 5 5 5 5 5 5 5 5 5 5 5 5 5 5 5 5 5 5 5 5 5 5 5 5 5 5 5 5 5 5 5 5 5 5 5 5 5 5 5 5 5 5 5 5 5 5 5 5 5 5 5 5 5 5 5 5 5 5 5 5 5 5 5 5 5 5 5 5 5 5 5 5 5 5 5 5 5 5 5 5 5 5 5 5 5 5 5 5 </DataArray>
</Cells>
<PointData  Vectors="u"> 
<DataArray  type="Float64"  Name="u"  NumberOfComponents="3" format="ascii">-1.7041518057754806e-01 0.0000000000000000e+00 0.0000000000000000e+00  0.0000000000000000e+00 0.0000000000000000e+00 0.0000000000000000e+00  0.0000000000000000e+00 0.0000000000000000e+00 0.0000000000000000e+00  0.0000000000000000e+00 -2.0830836641164456e+00 0.0000000000000000e+00  0.0000000000000000e+00 0.0000000000000000e+00 0.0000000000000000e+00  2.0346254941553923e+00 0.0000000000000000e+00 0.0000000000000000e+00  0.0000000000000000e+00 0.0000000000000000e+00 0.0000000000000000e+00  0.0000000000000000e+00 0.0000000000000000e+00 0.0000000000000000e+00  -3.2369433826893712e-01 -2.7443531593897458e-01 0.0000000000000000e+00  -1.0404653178958471e-01 -5.3938497266395602e-01 0.0000000000000000e+00  0.0000000000000000e+00 1.5084372389172737e-01 0.0000000000000000e+00  0.0000000000000000e+00 -1.3462481772569825e+00 0.0000000000000000e+00  -4.5902777935536737e-01 0.0000000000000000e+00 0.0000000000000000e+00  5.5529393254138182e-01 -5.9394100738375111e-01 0.0000000000000000e+00  4.7746625794280995e-01 6.1939459759628605e-02 0.0000000000000000e+00  1.7697051887863680e+00 0.0000000000000000e+00 0.0000000000000000e+00  0.0000000000000000e+00 -1.8033397424900235e+00 0.0000000000000000e+00  2.4112540023976115e-01 3.1002924198506288e-01 0.0000000000000000e+00  -1.8098781751725929e-01 0.0000000000000000e+00 0.0000000000000000e+00  0.0000000000000000e+00 4.5258945020042152e-01 0.0000000000000000e+00  1.3152029729794159e+00 0.0000000000000000e+00 0.0000000000000000e+00  -1.7526082594141004e-01 -5.3605834572442203e-03 0.0000000000000000e+00  0.0000000000000000e+00 1.7877103236403971e-01 0.0000000000000000e+00  -1.3735088790054320e-01 -9.4026773670836908e-02 0.0000000000000000e+00  -2.1539080414487649e-01 2.7608541142050903e-02 0.0000000000000000e+00  0.0000000000000000e+00 9.4360965449949707e-02 0.0000000000000000e+00  -2.5499288604186582e-01 2.7612426128237721e-02 0.0000000000000000e+00  -2.3234413320064523e-01 -4.1250491376705989e-01 0.0000000000000000e+00  -6.0987231706447882e-02 -1.2119539016587002e+00 0.0000000000000000e+00  -1.7803812027449739e-01 -1.0216262996088412e+00 0.0000000000000000e+00  -3.9693792154905982e-01 -1.3548621148878723e-01 0.0000000000000000e+00  -2.9498044110603799e-01 0.0000000000000000e+00 0.0000000000000000e+00  -3.3720247031288808e-01 -3.9009613125838777e-01 0.0000000000000000e+00  -3.9198699565245759e-01 0.0000000000000000e+00 0.0000000000000000e+00  0.0000000000000000e+00 -7.2827560309271822e-01 0.0000000000000000e+00  -2.6709763356464744e-01 -7.3749690006104618e-01 0.0000000000000000e+00  0.0000000000000000e+00 -1.8115896056213490e+00 0.0000000000000000e+00  1.0598169807019134e-01 -1.7329398877740587e-01 0.0000000000000000e+00  4.7116064097116909e-03 5.8897545928478019e-02 0.0000000000000000e+00  1.5387891115451341e-01 -6.2450100573191270e-01 0.0000000000000000e+00  1.2480224977765758e-01 -1.2747736405117485e+00 0.0000000000000000e+00  5.6992425781532829e-01 -1.9675613966352792e-01 0.0000000000000000e+00  1.1607158719654647e+00 4.1577758240415964e-02 0.0000000000000000e+00  1.2276601837139025e+00 -1.4563975987939465e-01 0.0000000000000000e+00  3.8010983279503024e-01 -1.1319963686917773e+00 0.0000000000000000e+00  0.0000000000000000e+00 -2.1051383582036549e+00 0.0000000000000000e+00  7.0722013800803152e-01 -7.2566289960610320e-01 0.0000000000000000e+00  0.0000000000000000e+00 -1.1189436088709426e+00 0.0000000000000000e+00  1.1010822245643006e+00 0.0000000000000000e+00 0.0000000000000000e+00  1.0969999931925658e+00 -3.9989326357999039e-01 0.0000000000000000e+00  2.0603881183844219e+00 0.0000000000000000e+00 0.0000000000000000e+00  -4.7040209247203757e-02 1.4580971425378400e-01 0.0000000000000000e+00  -2.1340825227052851e-01 0.0000000000000000e+00 0.0000000000000000e+00  3.6378849835768523e-01 2.0733896738386212e-01 0.0000000000000000e+00  9.7735454024474377e-01 1.6470220299276800e-01 0.0000000000000000e+00  -6.1350833033677055e-02 2.0278900087703530e-01 0.0000000000000000e+00  -1.1071065273039706e-01 0.0000000000000000e+00 0.0000000000000000e+00  -4.4641356320439640e-02 2.4848438456114724e-01 0.0000000000000000e+00  7.0572829045688712e-01 2.5893038749827108e-01 0.0000000000000000e+00  1.7689431652515282e+00 0.0000000000000000e+00 0.0000000000000000e+00  3.7360350150792493e-01 3.3199951398474142e-01 0.0000000000000000e+00  7.1205791344803449e-01 0.0000000000000000e+00 0.0000000000000000e+00  0.0000000000000000e+00 3.8772067193911230e-01 0.0000000000000000e+00  1.1851738811806985e-01 3.8886260846405191e-01 0.0000000000000000e+00  0.0000000000000000e+00 2.9003158319969691e-01 0.0000000000000000e+00  </DataArray> 
</PointData> 
</Piece>
</UnstructuredGrid>
</VTKFile>