<?xml version="1.0"?>
<VTKFile type="UnstructuredGrid"  version="0.1"  >
<UnstructuredGrid>
<Piece  NumberOfPoints="833" NumberOfCells="1536">
<Points>
<DataArray  type="Float32"  NumberOfComponents="3"  format="ascii">0 0 0  1 0 0  1 1 0  0 1 0  -1 1 0  -1 0 0  -1 -1 0  0 -1 0  0.5 0.5 0  0 0.5 0  0.5 0 0  0.5 1 0  1 0.5 0  -0.5 0.5 0  -0.5 0 0  -1 0.5 0  -0.5 1 0  -0.5 -0.5 0  0 -0.5 0  -0.5 -1 0  -1 -0.5 0  0.25 0.25 0  0.25 0 0  0 0.25 0  0.5 0.25 0  0.75 0 0  0.75 0.25 0  0.25 0.5 0  0 0.75 0  0.25 0.75 0  0.75 0.5 0  1 0.25 0  0.75 0.75 0  1 0.75 0  0.75 1 0  0.5 0.75 0  0.25 1 0  -0.25 0.25 0  -0.25 0 0  -0.25 0.5 0  -0.25 0.75 0  -0.5 0.25 0  -0.75 0 0  -0.75 0.25 0  -0.5 0.75 0  -0.25 1 0  -0.75 0.75 0  -0.75 1 0  -1 0.75 0  -0.75 0.5 0  -1 0.25 0  -0.25 -0.25 0  0 -0.25 0  -0.5 -0.25 0  -0.75 -0.25 0  -0.25 -0.5 0  0 -0.75 0  -0.25 -0.75 0  -0.75 -0.5 0  -1 -0.25 0  -0.75 -0.75 0  -1 -0.75 0  -0.75 -1 0  -0.5 -0.75 0  -0.25 -1 0  0.125 0.125 0  0 0.125 0  0.125 0 0  0.125 0.25 0  0 0.375 0  0.125 0.375 0  0.25 0.125 0  0.375 0 0  0.375 0.125 0  0.75 0.125 0  0.875 0.125 0  0.875 0 0  0.625 0.25 0  0.625 0.375 0  0.5 0.375 0  0.625 0.125 0  0.625 0 0  0.5 0.125 0  0.125 0.75 0  0.125 0.875 0  0 0.875 0  0.25 0.625 0  0.375 0.625 0  0.375 0.5 0  0.125 0.625 0  0 0.625 0  0.125 0.5 0  0.375 0.375 0  0.25 0.375 0  0.375 0.25 0  0.875 0.25 0  1 0.125 0  0.75 0.375 0  0.625 0.5 0  0.875 0.375 0  1 0.375 0  0.875 0.5 0  0.875 0.875 0  0.875 1 0  1 0.875 0  0.75 0.875 0  0.625 1 0  0.625 0.875 0  0.875 0.75 0  1 0.625 0  0.875 0.625 0  0.25 0.875 0  0.125 1 0  0.375 0.75 0  0.5 0.625 0  0.375 0.875 0  0.375 1 0  0.5 0.875 0  0.625 0.625 0  0.625 0.75 0  0.75 0.625 0  -0.125 0.125 0  -0.125 0 0  -0.125 0.25 0  -0.125 0.375 0  -0.25 0.125 0  -0.375 0 0  -0.375 0.125 0  -0.125 0.75 0  -0.125 0.875 0  -0.125 0.625 0  -0.125 0.5 0  -0.25 0.625 0  -0.375 0.625 0  -0.375 0.5 0  -0.75 0.125 0  -0.875 0.125 0  -0.875 0 0  -0.625 0.25 0  -0.625 0.375 0  -0.5 0.375 0  -0.625 0.125 0  -0.625 0 0  -0.5 0.125 0  -0.25 0.375 0  -0.375 0.375 0  -0.375 0.25 0  -0.25 0.875 0  -0.125 1 0  -0.375 0.75 0  -0.5 0.625 0  -0.375 0.875 0  -0.375 1 0  -0.5 0.875 0  -0.875 0.875 0  -1 0.875 0  -0.875 1 0  -0.875 0.75 0  -1 0.625 0  -0.875 0.625 0  -0.75 0.875 0  -0.625 1 0  -0.625 0.875 0  -0.875 0.25 0  -1 0.125 0  -0.75 0.375 0  -0.625 0.5 0  -0.875 0.375 0  -1 0.375 0  -0.875 0.5 0  -0.625 0.625 0  -0.75 0.625 0  -0.625 0.75 0  -0.125 -0.125 0  0 -0.125 0  -0.25 -0.125 0  -0.375 -0.125 0  -0.125 -0.25 0  0 -0.375 0  -0.125 -0.375 0  -0.75 -0.125 0  -0.875 -0.125 0  -0.625 -0.125 0  -0.5 -0.125 0  -0.625 -0.25 0  -0.625 -0.375 0  -0.5 -0.375 0  -0.125 -0.75 0  -0.125 -0.875 0  0 -0.875 0  -0.25 -0.625 0  -0.375 -0.625 0  -0.375 -0.5 0  -0.125 -0.625 0  0 -0.625 0  -0.125 -0.5 0  -0.375 -0.25 0  -0.375 -0.375 0  -0.25 -0.375 0  -0.875 -0.25 0  -1 -0.125 0  -0.75 -0.375 0  -0.625 -0.5 0  -0.875 -0.375 0  -1 -0.375 0  -0.875 -0.5 0  -0.875 -0.875 0  -0.875 -1 0  -1 -0.875 0  -0.75 -0.875 0  -0.625 -1 0  -0.625 -0.875 0  -0.875 -0.75 0  -1 -0.625 0  -0.875 -0.625 0  -0.25 -0.875 0  -0.125 -1 0  -0.375 -0.75 0  -0.5 -0.625 0  -0.375 -0.875 0  -0.375 -1 0  -0.5 -0.875 0  -0.625 -0.625 0  -0.625 -0.75 0  -0.75 -0.625 0  0.0625 0.0625 0  0.0625 0 0  0 0.0625 0  0.125 0.0625 0  0.1875 0 0  0.1875 0.0625 0  0.0625 0.125 0  0 0.1875 0  0.0625 0.1875 0  0.0625 0.375 0  0.0625 0.4375 0  0 0.4375 0  0.125 0.3125 0  0.1875 0.3125 0  0.1875 0.25 0  0.0625 0.3125 0  0 0.3125 0  0.0625 0.25 0  0.375 0.0625 0  0.4375 0.0625 0  0.4375 0 0  0.3125 0.125 0  0.3125 0.1875 0  0.25 0.1875 0  0.3125 0.0625 0  0.3125 0 0  0.25 0.0625 0  0.1875 0.1875 0  0.1875 0.125 0  0.125 0.1875 0  0.875 0.0625 0  0.9375 0 0  0.9375 0.0625 0  0.8125 0.0625 0  0.8125 0 0  0.75 0.0625 0  0.8125 0.125 0  0.8125 0.1875 0  0.75 0.1875 0  0.5625 0.375 0  0.5 0.4375 0  0.5625 0.4375 0  0.5625 0.3125 0  0.5 0.3125 0  0.5625 0.25 0  0.625 0.3125 0  0.6875 0.3125 0  0.6875 0.25 0  0.5625 0.0625 0  0.5 0.0625 0  0.5625 0 0  0.5625 0.125 0  0.5 0.1875 0  0.5625 0.1875 0  0.625 0.0625 0  0.6875 0 0  0.6875 0.0625 0  0.625 0.1875 0  0.6875 0.125 0  0.6875 0.1875 0  0.0625 0.875 0  0 0.9375 0  0.0625 0.9375 0  0.0625 0.8125 0  0 0.8125 0  0.0625 0.75 0  0.125 0.8125 0  0.1875 0.8125 0  0.1875 0.75 0  0.375 0.5625 0  0.4375 0.5 0  0.4375 0.5625 0  0.3125 0.5625 0  0.3125 0.5 0  0.25 0.5625 0  0.3125 0.625 0  0.3125 0.6875 0  0.25 0.6875 0  0.0625 0.5625 0  0.0625 0.5 0  0 0.5625 0  0.125 0.5625 0  0.1875 0.5 0  0.1875 0.5625 0  0.0625 0.625 0  0 0.6875 0  0.0625 0.6875 0  0.1875 0.625 0  0.125 0.6875 0  0.1875 0.6875 0  0.4375 0.4375 0  0.4375 0.375 0  0.4375 0.3125 0  0.375 0.4375 0  0.3125 0.4375 0  0.125 0.4375 0  0.1875 0.375 0  0.25 0.3125 0  0.1875 0.4375 0  0.25 0.4375 0  0.4375 0.125 0  0.375 0.1875 0  0.3125 0.25 0  0.4375 0.1875 0  0.4375 0.25 0  0.3125 0.3125 0  0.375 0.3125 0  0.3125 0.375 0  0.9375 0.125 0  1 0.0625 0  0.875 0.1875 0  0.8125 0.25 0  0.9375 0.1875 0  1 0.1875 0  0.9375 0.25 0  0.625 0.4375 0  0.5625 0.5 0  0.6875 0.375 0  0.75 0.3125 0  0.6875 0.4375 0  0.6875 0.5 0  0.75 0.4375 0  0.9375 0.4375 0  0.9375 0.5 0  1 0.4375 0  0.875 0.4375 0  0.8125 0.5 0  0.8125 0.4375 0  0.9375 0.375 0  1 0.3125 0  0.9375 0.3125 0  0.8125 0.3125 0  0.8125 0.375 0  0.875 0.3125 0  0.9375 0.9375 0  1 0.9375 0  0.9375 1 0  0.9375 0.875 0  1 0.8125 0  0.9375 0.8125 0  0.875 0.9375 0  0.8125 1 0  0.8125 0.9375 0  0.625 0.9375 0  0.5625 0.9375 0  0.5625 1 0  0.6875 0.875 0  0.6875 0.8125 0  0.75 0.8125 0  0.6875 0.9375 0  0.6875 1 0  0.75 0.9375 0  0.9375 0.625 0  0.9375 0.5625 0  1 0.5625 0  0.875 0.6875 0  0.8125 0.6875 0  0.8125 0.75 0  0.9375 0.6875 0  1 0.6875 0  0.9375 0.75 0  0.8125 0.8125 0  0.875 0.8125 0  0.8125 0.875 0  0.125 0.9375 0  0.0625 1 0  0.1875 0.875 0  0.25 0.8125 0  0.1875 0.9375 0  0.1875 1 0  0.25 0.9375 0  0.4375 0.625 0  0.5 0.5625 0  0.375 0.6875 0  0.3125 0.75 0  0.4375 0.6875 0  0.5 0.6875 0  0.4375 0.75 0  0.4375 0.9375 0  0.5 0.9375 0  0.4375 1 0  0.4375 0.875 0  0.5 0.8125 0  0.4375 0.8125 0  0.375 0.9375 0  0.3125 1 0  0.3125 0.9375 0  0.3125 0.8125 0  0.375 0.8125 0  0.3125 0.875 0  0.5625 0.5625 0  0.625 0.5625 0  0.6875 0.5625 0  0.5625 0.625 0  0.5625 0.6875 0  0.5625 0.875 0  0.625 0.8125 0  0.6875 0.75 0  0.5625 0.8125 0  0.5625 0.75 0  0.875 0.5625 0  0.8125 0.5625 0  0.75 0.5625 0  0.8125 0.625 0  0.75 0.6875 0  0.6875 0.625 0  0.6875 0.6875 0  0.625 0.6875 0  -0.0625 0.0625 0  -0.0625 0 0  -0.0625 0.125 0  -0.0625 0.1875 0  -0.125 0.0625 0  -0.1875 0 0  -0.1875 0.0625 0  -0.0625 0.375 0  -0.0625 0.4375 0  -0.0625 0.3125 0  -0.0625 0.25 0  -0.125 0.3125 0  -0.1875 0.3125 0  -0.1875 0.25 0  -0.375 0.0625 0  -0.4375 0.0625 0  -0.4375 0 0  -0.3125 0.125 0  -0.3125 0.1875 0  -0.25 0.1875 0  -0.3125 0.0625 0  -0.3125 0 0  -0.25 0.0625 0  -0.125 0.1875 0  -0.1875 0.1875 0  -0.1875 0.125 0  -0.0625 0.875 0  -0.0625 0.9375 0  -0.0625 0.8125 0  -0.0625 0.75 0  -0.125 0.8125 0  -0.1875 0.8125 0  -0.1875 0.75 0  -0.0625 0.5625 0  -0.0625 0.5 0  -0.0625 0.625 0  -0.0625 0.6875 0  -0.125 0.5625 0  -0.1875 0.5 0  -0.1875 0.5625 0  -0.375 0.5625 0  -0.4375 0.5 0  -0.4375 0.5625 0  -0.3125 0.5625 0  -0.3125 0.5 0  -0.25 0.5625 0  -0.3125 0.625 0  -0.3125 0.6875 0  -0.25 0.6875 0  -0.125 0.6875 0  -0.1875 0.625 0  -0.1875 0.6875 0  -0.875 0.0625 0  -0.9375 0 0  -0.9375 0.0625 0  -0.8125 0.0625 0  -0.8125 0 0  -0.75 0.0625 0  -0.8125 0.125 0  -0.8125 0.1875 0  -0.75 0.1875 0  -0.5625 0.375 0  -0.5 0.4375 0  -0.5625 0.4375 0  -0.5625 0.3125 0  -0.5 0.3125 0  -0.5625 0.25 0  -0.625 0.3125 0  -0.6875 0.3125 0  -0.6875 0.25 0  -0.5625 0.0625 0  -0.5 0.0625 0  -0.5625 0 0  -0.5625 0.125 0  -0.5 0.1875 0  -0.5625 0.1875 0  -0.625 0.0625 0  -0.6875 0 0  -0.6875 0.0625 0  -0.625 0.1875 0  -0.6875 0.125 0  -0.6875 0.1875 0  -0.125 0.4375 0  -0.1875 0.375 0  -0.25 0.3125 0  -0.1875 0.4375 0  -0.25 0.4375 0  -0.4375 0.4375 0  -0.375 0.4375 0  -0.3125 0.4375 0  -0.4375 0.375 0  -0.4375 0.3125 0  -0.4375 0.125 0  -0.375 0.1875 0  -0.3125 0.25 0  -0.4375 0.1875 0  -0.4375 0.25 0  -0.3125 0.3125 0  -0.3125 0.375 0  -0.375 0.3125 0  -0.125 0.9375 0  -0.0625 1 0  -0.1875 0.875 0  -0.25 0.8125 0  -0.1875 0.9375 0  -0.1875 1 0  -0.25 0.9375 0  -0.4375 0.625 0  -0.5 0.5625 0  -0.375 0.6875 0  -0.3125 0.75 0  -0.4375 0.6875 0  -0.5 0.6875 0  -0.4375 0.75 0  -0.4375 0.9375 0  -0.5 0.9375 0  -0.4375 1 0  -0.4375 0.875 0  -0.5 0.8125 0  -0.4375 0.8125 0  -0.375 0.9375 0  -0.3125 1 0  -0.3125 0.9375 0  -0.3125 0.8125 0  -0.375 0.8125 0  -0.3125 0.875 0  -0.9375 0.9375 0  -0.9375 1 0  -1 0.9375 0  -0.875 0.9375 0  -0.8125 1 0  -0.8125 0.9375 0  -0.9375 0.875 0  -1 0.8125 0  -0.9375 0.8125 0  -0.9375 0.625 0  -0.9375 0.5625 0  -1 0.5625 0  -0.875 0.6875 0  -0.8125 0.6875 0  -0.8125 0.75 0  -0.9375 0.6875 0  -1 0.6875 0  -0.9375 0.75 0  -0.625 0.9375 0  -0.5625 0.9375 0  -0.5625 1 0  -0.6875 0.875 0  -0.6875 0.8125 0  -0.75 0.8125 0  -0.6875 0.9375 0  -0.6875 1 0  -0.75 0.9375 0  -0.8125 0.8125 0  -0.8125 0.875 0  -0.875 0.8125 0  -0.9375 0.125 0  -1 0.0625 0  -0.875 0.1875 0  -0.8125 0.25 0  -0.9375 0.1875 0  -1 0.1875 0  -0.9375 0.25 0  -0.625 0.4375 0  -0.5625 0.5 0  -0.6875 0.375 0  -0.75 0.3125 0  -0.6875 0.4375 0  -0.6875 0.5 0  -0.75 0.4375 0  -0.9375 0.4375 0  -0.9375 0.5 0  -1 0.4375 0  -0.875 0.4375 0  -0.8125 0.5 0  -0.8125 0.4375 0  -0.9375 0.375 0  -1 0.3125 0  -0.9375 0.3125 0  -0.8125 0.3125 0  -0.8125 0.375 0  -0.875 0.3125 0  -0.5625 0.5625 0  -0.5625 0.625 0  -0.5625 0.6875 0  -0.625 0.5625 0  -0.6875 0.5625 0  -0.875 0.5625 0  -0.8125 0.625 0  -0.75 0.6875 0  -0.8125 0.5625 0  -0.75 0.5625 0  -0.5625 0.875 0  -0.5625 0.8125 0  -0.5625 0.75 0  -0.625 0.8125 0  -0.6875 0.75 0  -0.625 0.6875 0  -0.6875 0.6875 0  -0.6875 0.625 0  -0.0625 -0.0625 0  0 -0.0625 0  -0.125 -0.0625 0  -0.1875 -0.0625 0  -0.0625 -0.125 0  0 -0.1875 0  -0.0625 -0.1875 0  -0.375 -0.0625 0  -0.4375 -0.0625 0  -0.3125 -0.0625 0  -0.25 -0.0625 0  -0.3125 -0.125 0  -0.3125 -0.1875 0  -0.25 -0.1875 0  
[...]
<PointData  Vectors="u"> 
<DataArray  type="Float32"  Name="u"  NumberOfComponents="3" format="ascii">0.000000e+00 0.000000e+00 0.000000e+00  0.000000e+00 0.000000e+00 0.000000e+00  0.000000e+00 0.000000e+00 0.000000e+00  0.000000e+00 -2.058680e+00 0.000000e+00  0.000000e+00 0.000000e+00 0.000000e+00  2.058680e+00 0.000000e+00 0.000000e+00  0.000000e+00 0.000000e+00 0.000000e+00  0.000000e+00 0.000000e+00 0.000000e+00  -3.134055e-01 -2.897998e-01 0.000000e+00  -5.663048e-02 -5.686629e-01 0.000000e+00  0.000000e+00 1.132610e-01 0.000000e+00  0.000000e+00 -1.408670e+00 0.000000e+00  -4.508709e-01 0.000000e+00 0.000000e+00  6.032053e-01 -6.032053e-01 0.000000e+00  5.686629e-01 5.663048e-02 0.000000e+00  1.859541e+00 0.000000e+00 0.000000e+00  0.000000e+00 -1.859541e+00 0.000000e+00  2.897998e-01 3.134055e-01 0.000000e+00  -1.132610e-01 0.000000e+00 0.000000e+00  0.000000e+00 4.508709e-01 0.000000e+00  1.408670e+00 0.000000e+00 0.000000e+00  -1.424162e-01 -2.752147e-02 0.000000e+00  0.000000e+00 1.205784e-01 0.000000e+00  -6.028918e-02 -1.056714e-01 0.000000e+00  -2.035889e-01 9.515643e-03 0.000000e+00  0.000000e+00 7.122102e-02 0.000000e+00  -2.482703e-01 1.720281e-02 0.000000e+00  -1.994553e-01 -4.350839e-01 0.000000e+00  -3.561051e-02 -1.253805e+00 0.000000e+00  -1.552755e-01 -1.059399e+00 0.000000e+00  -3.928153e-01 -1.426838e-01 0.000000e+00  -2.814415e-01 0.000000e+00 0.000000e+00  -3.384915e-01 -4.050917e-01 0.000000e+00  -3.944004e-01 0.000000e+00 0.000000e+00  0.000000e+00 -7.640882e-01 0.000000e+00  -2.628475e-01 -7.669935e-01 0.000000e+00  0.000000e+00 -1.884368e+00 0.000000e+00  1.699376e-01 -1.699376e-01 0.000000e+00  1.056714e-01 6.028918e-02 0.000000e+00  1.899396e-01 -6.386728e-01 0.000000e+00  1.380727e-01 -1.307669e+00 0.000000e+00  6.386728e-01 -1.899396e-01 0.000000e+00  1.253805e+00 3.561051e-02 0.000000e+00  1.307669e+00 -1.380727e-01 0.000000e+00  4.055313e-01 -1.159809e+00 0.000000e+00  0.000000e+00 -2.165810e+00 0.000000e+00  7.435832e-01 -7.435832e-01 0.000000e+00  0.000000e+00 -1.158489e+00 0.000000e+00  1.158489e+00 0.000000e+00 0.000000e+00  1.159809e+00 -4.055313e-01 0.000000e+00  2.165810e+00 0.000000e+00 0.000000e+00  2.752147e-02 1.424162e-01 0.000000e+00  -1.205784e-01 0.000000e+00 0.000000e+00  4.350839e-01 1.994553e-01 0.000000e+00  1.059399e+00 1.552755e-01 0.000000e+00  -9.515643e-03 2.035889e-01 0.000000e+00  -7.122102e-02 0.000000e+00 0.000000e+00  -1.720281e-02 2.482703e-01 0.000000e+00  7.669935e-01 2.628475e-01 0.000000e+00  1.884368e+00 0.000000e+00 0.000000e+00  4.050917e-01 3.384915e-01 0.000000e+00  7.640882e-01 0.000000e+00 0.000000e+00  0.000000e+00 3.944004e-01 0.000000e+00  1.426838e-01 3.928153e-01 0.000000e+00  0.000000e+00 2.814415e-01 0.000000e+00  -6.146037e-02 6.016278e-02 0.000000e+00  -5.114165e-02 2.103114e-02 0.000000e+00  0.000000e+00 1.022833e-01 0.000000e+00  -9.950698e-02 -6.134722e-02 0.000000e+00  -6.108262e-02 -3.063333e-01 0.000000e+00  -1.182134e-01 -2.525436e-01 0.000000e+00  -7.925619e-02 8.218289e-02 0.000000e+00  0.000000e+00 1.221652e-01 0.000000e+00  -9.466111e-02 8.959141e-02 0.000000e+00  -1.307440e-01 5.751531e-02 0.000000e+00  -1.399426e-01 3.223759e-02 0.000000e+00  0.000000e+00 3.918118e-02 0.000000e+00  -2.274846e-01 1.652579e-02 0.000000e+00  -3.098101e-01 -8.113343e-02 0.000000e+00  -2.749810e-01 -1.167782e-01 0.000000e+00  -1.201842e-01 7.578350e-02 0.000000e+00  0.000000e+00 9.600536e-02 0.000000e+00  -1.082126e-01 8.676489e-02 0.000000e+00  -8.280229e-02 -1.170209e+00 0.000000e+00  -4.457253e-02 -1.576534e+00 0.000000e+00  -1.959059e-02 -1.664934e+00 0.000000e+00  -1.905573e-01 -7.219215e-01 0.000000e+00  -2.569285e-01 -6.194863e-01 0.000000e+00  -2.621611e-01 -3.630095e-01 0.000000e+00  -1.090071e-01 -8.119335e-01 0.000000e+00  -4.800268e-02 -8.861366e-01 0.000000e+00  -1.210071e-01 -5.046596e-01 0.000000e+00  -2.336646e-01 -1.568643e-01 0.000000e+00  -1.830540e-01 -2.020409e-01 0.000000e+00  -1.757886e-01 -4.618611e-03 0.000000e+00  -2.662743e-01 1.173915e-02 0.000000e+00  -1.476672e-01 0.000000e+00 0.000000e+00  -3.397126e-01 -4.962834e-02 0.000000e+00  -3.562812e-01 -2.161437e-01 0.000000e+00  -3.654672e-01 -2.241469e-02 0.000000e+00  -3.872560e-01 0.000000e+00 0.000000e+00  -4.241840e-01 -7.026635e-02 0.000000e+00  -2.292782e-01 -2.941781e-01 0.000000e+00  0.000000e+00 -3.944155e-01 0.000000e+00  -2.462368e-01 0.000000e+00 0.000000e+00  -2.098115e-01 -5.729180e-01 0.000000e+00  0.000000e+00 -1.104049e+00 0.000000e+00  -1.873562e-01 -8.322567e-01 0.000000e+00  -3.684949e-01 -2.064670e-01 0.000000e+00  -4.579808e-01 0.000000e+00 0.000000e+00  -4.294009e-01 -1.317053e-01 0.000000e+00  -9.256752e-02 -1.446302e+00 0.000000e+00  0.000000e+00 -2.036296e+00 0.000000e+00  -2.142130e-01 -9.237497e-01 0.000000e+00  -3.115162e-01 -5.071938e-01 0.000000e+00  -1.301583e-01 -1.274473e+00 0.000000e+00  0.000000e+00 -1.671413e+00 0.000000e+00  -1.611695e-01 -1.067797e+00 0.000000e+00  -3.571894e-01 -3.871961e-01 0.000000e+00  -3.036775e-01 -5.929630e-01 0.000000e+00  -3.960364e-01 -2.614137e-01 0.000000e+00  1.297582e-03 -1.297582e-03 0.000000e+00  -2.103114e-02 5.114165e-02 0.000000e+00  1.732409e-02 -1.406034e-01 0.000000e+00  2.862195e-02 -3.472047e-01 0.000000e+00  1.406034e-01 -1.732409e-02 0.000000e+00  3.063333e-01 6.108262e-02 0.000000e+00  3.472047e-01 -2.862195e-02 0.000000e+00  2.528698e-02 -1.300953e+00 0.000000e+00  1.233494e-02 -1.716477e+00 0.000000e+00  3.322361e-02 -9.321177e-01 0.000000e+00  3.424220e-02 -6.128722e-01 0.000000e+00  1.740315e-01 -9.494061e-01 0.000000e+00  3.380620e-01 -9.292965e-01 0.000000e+00  3.789393e-01 -6.379904e-01 0.000000e+00  1.300953e+00 -2.528698e-02 0.000000e+00  1.716477e+00 -1.233494e-02 0.000000e+00  1.664934e+00 1.959059e-02 0.000000e+00  9.494061e-01 -1.740315e-01 0.000000e+00  9.292965e-01 -3.380620e-01 0.000000e+00  6.379904e-01 -3.789393e-01 0.000000e+00  9.321177e-01 -3.322361e-02 0.000000e+00  8.861366e-01 4.800268e-02 0.000000e+00  6.128722e-01 -3.424220e-02 0.000000e+00  1.876726e-01 -3.778295e-01 0.000000e+00  3.905288e-01 -3.905288e-01 0.000000e+00  3.778295e-01 -1.876726e-01 0.000000e+00  8.082837e-02 -1.712576e+00 0.000000e+00  0.000000e+00 -2.183963e+00 0.000000e+00  2.638413e-01 -1.263462e+00 0.000000e+00  5.276599e-01 -8.634749e-01 0.000000e+00  1.525730e-01 -1.639940e+00 0.000000e+00  0.000000e+00 -2.058669e+00 0.000000e+00  2.314359e-01 -1.491981e+00 0.000000e+00  5.234563e-01 -5.234563e-01 0.000000e+00  6.406523e-01 0.000000e+00 0.000000e+00  0.000000e+00 -6.406523e-01 0.000000e+00  9.414129e-01 -4.162785e-01 0.000000e+00  1.562030e+00 0.000000e+00 0.000000e+00  1.261658e+00 -3.190614e-01 0.000000e+00  4.162785e-01 -9.414129e-01 0.000000e+00  0.000000e+00 -1.562030e+00 0.000000e+00  3.190614e-01 -1.261658e+00 0.000000e+00  1.712576e+00 -8.082837e-02 0.000000e+00  2.183963e+00 0.000000e+00 0.000000e+00  1.263462e+00 -2.638413e-01 0.000000e+00  8.634749e-01 -5.276599e-01 0.000000e+00  1.639940e+00 -1.525730e-01 0.000000e+00  2.058669e+00 0.000000e+00 0.000000e+00  1.491981e+00 -2.314359e-01 0.000000e+00  7.443854e-01 -7.443854e-01 0.000000e+00  9.889994e-01 -5.650912e-01 0.000000e+00  5.650912e-01 -9.889994e-01 0.000000e+00  -6.016278e-02 6.146037e-02 0.000000e+00  -1.022833e-01 0.000000e+00 0.000000e+00  6.134722e-02 9.950698e-02 0.000000e+00  2.525436e-01 1.182134e-01 0.000000e+00  -8.218289e-02 7.925619e-02 0.000000e+00  -1.221652e-01 0.000000e+00 0.000000e+00  -8.959141e-02 9.466111e-02 0.000000e+00  1.170209e+00 8.280229e-02 0.000000e+00  1.576534e+00 4.457253e-02 0.000000e+00  8.119335e-01 1.090071e-01 0.000000e+00  5.046596e-01 1.210071e-01 0.000000e+00  7.219215e-01 1.905573e-01 0.000000e+00  6.194863e-01 2.569285e-01 0.000000e+00  3.630095e-01 2.621611e-01 0.000000e+00  -5.751531e-02 1.307440e-01 0.000000e+00  -3.223759e-02 1.399426e-01 0.000000e+00  -3.918118e-02 0.000000e+00 0.000000e+00  -1.652579e-02 2.274846e-01 0.000000e+00  8.113343e-02 3.098101e-01 0.000000e+00  1.167782e-01 2.749810e-01 0.000000e+00  -7.578350e-02 1.201842e-01 0.000000e+00  -9.600536e-02 0.000000e+00 0.000000e+00  -8.676489e-02 1.082126e-01 0.000000e+00  2.020409e-01 1.830540e-01 0.000000e+00  1.568643e-01 2.336646e-01 0.000000e+00  4.618611e-03 1.757886e-01 0.000000e+00  1.446302e+00 9.256752e-02 0.000000e+00  2.036296e+00 0.000000e+00 0.000000e+00  9.237497e-01 2.142130e-01 0.000000e+00  5.071938e-01 3.115162e-01 0.000000e+00  1.274473e+00 1.301583e-01 0.000000e+00  1.671413e+00 0.000000e+00 0.000000e+00  1.067797e+00 1.611695e-01 0.000000e+00  2.941781e-01 2.292782e-01 0.000000e+00  0.000000e+00 2.462368e-01 0.000000e+00  3.944155e-01 0.000000e+00 0.000000e+00  2.064670e-01 3.684949e-01 0.000000e+00  0.000000e+00 4.579808e-01 0.000000e+00  1.317053e-01 4.294009e-01 0.000000e+00  5.729180e-01 2.098115e-01 0.000000e+00  1.104049e+00 0.000000e+00 0.000000e+00  8.322567e-01 1.873562e-01 0.000000e+00  -1.173915e-02 2.662743e-01 0.000000e+00  0.000000e+00 1.476672e-01 0.000000e+00  4.962834e-02 3.397126e-01 0.000000e+00  2.161437e-01 3.562812e-01 0.000000e+00  2.241469e-02 3.654672e-01 0.000000e+00  0.000000e+00 3.872560e-01 0.000000e+00  7.026635e-02 4.241840e-01 0.000000e+00  3.871961e-01 3.571894e-01 0.000000e+00  2.614137e-01 3.960364e-01 0.000000e+00  5.929630e-01 3.036775e-01 0.000000e+00  -3.092828e-02 7.120852e-02 0.000000e+00  0.000000e+00 8.086840e-02 0.000000e+00  -4.043420e-02 4.680235e-02 0.000000e+00  -3.331385e-02 9.140400e-02 0.000000e+00  0.000000e+00 1.142835e-01 0.000000e+00  -3.699791e-02 1.036498e-01 0.000000e+00  -5.131816e-02 4.216921e-02 0.000000e+00  -5.714174e-02 -3.180395e-02 0.000000e+00  -6.417589e-02 -1.011783e-02 0.000000e+00  -7.887235e-02 -2.792645e-01 0.000000e+00  -7.819417e-02 -4.011970e-01 0.000000e+00  -5.942263e-02 -4.302637e-01 0.000000e+00  -1.109834e-01 -1.488720e-01 0.000000e+00  -1.403319e-01 -1.269172e-01 0.000000e+00  -1.225771e-01 -4.296628e-02 0.000000e+00  -7.702896e-02 -1.726530e-01 0.000000e+00  -6.145570e-02 -1.977472e-01 0.000000e+00  -7.233490e-02 -8.244388e-02 0.000000e+00  -4.823922e-02 1.137414e-01 0.000000e+00  -5.167776e-02 1.112121e-01 0.000000e+00  0.000000e+00 1.188453e-01 0.000000e+00  -8.721215e-02 8.737132e-02 0.000000e+00  -1.260718e-01 4.432463e-02 0.000000e+00  -1.134450e-01 3.586895e-02 0.000000e+00  -4.462076e-02 1.137044e-01 0.000000e+00  0.000000e+00 1.229114e-01 0.000000e+00  -4.084693e-02 1.106104e-01 0.000000e+00  -9.940183e-02 2.417192e-02 0.000000e+00  -7.072506e-02 7.338647e-02 0.000000e+00  -8.326611e-02 8.818415e-03 0.000000e+00  -7.082303e-02 3.740167e-02 0.000000e+00  0.000000e+00 2.047170e-02 0.000000e+00  -7.286517e-02 1.958356e-02 0.000000e+00  -6.859892e-02 5.344219e-02 0.000000e+00  0.000000e+00 5.610115e-02 0.000000e+00  -6.620250e-02 6.769693e-02 0.000000e+00  -1.355157e-01 4.574766e-02 0.000000e+00  -1.990749e-01 3.301749e-02 0.000000e+00  -1.919755e-01 4.068240e-02 0.000000e+00  -2.930869e-01 -9.843064e-02 0.000000e+00  -2.988025e-01 -1.976005e-01 0.000000e+00  -3.192878e-01 -1.705377e-01 0.000000e+00  -2.582454e-01 -3.689773e-02 0.000000e+00  -2.428917e-01 -4.763806e-02 0.000000e+00  -2.159618e-01 1.384428e-02 0.000000e+00  -2.724791e-01 -2.756050e-02 0.000000e+00  -2.857143e-01 -1.957138e-02 0.000000e+00  -2.382367e-01 1.763330e-02 0.000000e+00  -5.800735e-02 9.957893e-02 0.000000e+00  -5.493258e-02 1.064254e-01 0.000000e+00  0.000000e+00 1.056070e-01 0.000000e+00  -1.143829e-01 8.222008e-02 0.000000e+00  -1.582541e-01 5.439829e-02 0.000000e+00  -1.675378e-01 5.360276e-02 0.000000e+00  -6.090771e-02 9.079718e-02 0.000000e+00  0.000000e+00 8.452953e-02 0.000000e+00  -6.363855e-02 8.015570e-02 0.000000e+00  -1.762265e-01 5.100463e-02 0.000000e+00  -1.256343e-01 6.753400e-02 0.000000e+00  -1.843633e-01 4.668361e-02 0.000000e+00  -1.490286e-02 -1.624998e+00 0.000000e+00  -1.023585e-02 -1.880669e+00 0.000000e+00  -4.045858e-03 -1.843943e+00 0.000000e+00  -2.857638e-02 -1.415040e+00 0.000000e+00  -2.805058e-02 -1.454639e+00 0.000000e+00  -4.161461e-02 -1.215496e+00 0.000000e+00  -6.488353e-02 -1.367449e+00 0.000000e+00  -9.799709e-02 -1.311333e+00 0.000000e+00  -1.209455e-01 -1.118100e+00 0.000000e+00  -2.640007e-01 -4.851423e-01 0.000000e+00  -2.889952e-01 -3.264973e-01 0.000000e+00  -2.922295e-01 -4.396667e-01 0.000000e+00  -2.328234e-01 -5.293301e-01 0.000000e+00  -2.324809e-01 -3.992474e-01 0.000000e+00  -1.982375e-01 -5.720122e-01 0.000000e+00  -2.254223e-01 -6.720845e-01 0.000000e+00  -2.099864e-01 -8.271992e-01 0.000000e+00  -1.762783e-01 -8.844631e-01 0.000000e+00  -6.993232e-02 -6.878314e-01 0.000000e+00  -7.517837e-02 -5.376138e-01 0.000000e+00  -5.280352e-02 -7.208250e-01 0.000000e+00  -1.168249e-01 -6.516870e-01 0.000000e+00  -1.625101e-01 -4.703223e-01 0.000000e+00  -1.597437e-01 -6.129155e-01 0.000000e+00  -6.252878e-02 -8.512573e-01 0.000000e+00  -4.226477e-02 -1.064012e+00 0.000000e+00  -5.304381e-02 -1.027338e+00 0.000000e+00  -1.518935e-01 -7.686635e-01 0.000000e+00  -9.761946e-02 -9.849179e-01 0.000000e+00  -1.389494e-01 -9.371604e-01 0.000000e+00  -2.764442e-01 -2.252329e-01 0.000000e+00  -2.552718e-01 -1.362295e-01 0.000000e+00  -2.262478e-01 -5.987646e-02 0.000000e+00  -2.518808e-01 -2.534432e-01 0.000000e+00  -2.246914e-01 -2.822352e-01 0.000000e+00  -1.214992e-01 -3.713981e-01 0.000000e+00  -1.528355e-01 -2.266722e-01 0.000000e+00  -1.656952e-01 -1.071055e-01 0.000000e+00  -1.602096e-01 -3.413773e-01 0.000000e+00  -1.943497e-01 -3.115805e-01 0.000000e+00  -1.016489e-01 8.928877e-02 0.000000e+00  -1.376284e-01 4.999667e-02 0.000000e+00  -1.599629e-01 -1.483651e-02 0.000000e+00  -1.483134e-01 5.326147e-02 0.000000e+00  -1.902518e-01 3.419946e-03 0.000000e+00  -1.880505e-01 -8.943108e-02 0.000000e+00  -2.080777e-01 -7.374987e-02 0.000000e+00  -2.097663e-01 -1.787756e-01 0.000000e+00  -1.440072e-01 1.698664e-02 0.000000e+00  -7.469586e-02 0.000000e+00 0.000000e+00  -2.056583e-01 2.368840e-02 0.000000e+00  -2.576142e-01 1.524216e-02 0.000000e+00  -2.117055e-01 1.268596e-02 0.000000e+00  -2.171659e-01 0.000000e+00 0.000000e+00  -2.742341e-01 6.668865e-03 0.000000e+00  -3.381587e-01 -1.440483e-01 0.000000e+00  -3.357403e-01 -2.529906e-01 0.000000e+00  -3.253134e-01 -6.486375e-02 0.000000e+00  -2.980343e-01 -1.291008e-02 0.000000e+00  -3.556123e-01 -1.181560e-01 0.000000e+00  -3.752498e-01 -1.793423e-01 0.000000e+00  -3.717945e-01 -9.290692e-02 0.000000e+00  -4.135233e-01 -2.180014e-02 0.000000e+00  -4.381081e-01 -3.478441e-02 0.000000e+00  -4.252331e-01 0.000000e+00 0.000000e+00  -4.007077e-01 -4.463125e-02 0.000000e+00  -4.091000e-01 -1.062817e-01 0.000000e+00  -3.868060e-01 -6.836913e-02 0.000000e+00  -3.768698e-01 -1.056508e-02 0.000000e+00  -3.387302e-01 0.000000e+00 0.000000e+00  -3.298650e-01 -1.077758e-03 0.000000e+00  -3.094900e-01 -7.584663e-03 0.000000e+00  -3.530837e-01 -3.546024e-02 0.000000e+00  -3.201027e-01 -3.625170e-03 0.000000e+00  -1.315642e-01 -1.735953e-01 0.000000e+00  -1.362054e-01 0.000000e+00 0.000000e+00  0.000000e+00 -2.000120e-01 0.000000e+00  -2.380476e-01 -1.487817e-01 0.000000e+00  -3.317448e-01 0.000000e+00 0.000000e+00  -3.209823e-01 -1.255846e-01 0.000000e+00  -1.266144e-01 -3.427536e-01 0.000000e+00  0.000000e+00 -5.826421e-01 0.000000e+00  -1.213226e-01 -5.069467e-01 0.000000e+00  -1.030704e-01 -9.641447e-01 0.000000e+00  -9.604308e-02 -1.102723e+00 0.000000e+00  0.000000e+00 -1.261161e+00 0.000000e+00  -1.989969e-01 -7.052745e-01 0.000000e+00  -2.693389e-01 -5.993436e-01 0.000000e+00  -2.836756e-01 -4.860374e-01 0.000000e+00  -1.095914e-01 -8.182311e-01 0.000000e+00  0.000000e+00 -9.381166e-01 0.000000e+00  -1.156604e-01 -6.656298e-01 0.000000e+00  -4.442682e-01 -6.597579e-02 0.000000e+00  -4.489192e-01 -4.951320e-02 0.000000e+00  -4.623806e-01 0.000000e+00 0.000000e+00  -4.079853e-01 -1.674422e-01 0.000000e+00  -3.923536e-01 -2.495513e-01 0.000000e+00  -3.540394e-01 -3.069395e-01 0.000000e+00  -4.224872e-01 -8.415614e-02 0.000000e+00  -4.359037e-01 0.000000e+00 0.000000e+00  -3.819316e-01 -1.040338e-01 0.000000e+00  -2.970064e-01 -3.690215e-01 0.000000e+00  -3.094200e-01 -2.487302e-01 0.000000e+00  -2.198831e-01 -4.357180e-01 0.000000e+00  -2.293749e-02 -1.798498e+00 0.000000e+00  0.000000e+00 -2.083973e+00 0.000000e+00  -7.028948e-02 -1.517020e+00 0.000000e+00  -1.274283e-01 -1.246639e+00 0.000000e+00  -3.785574e-02 -1.735853e+00 0.000000e+00  0.000000e+00 -1.968962e+00 0.000000e+00  -5.033494e-02 -1.658727e+00 0.000000e+00  -2.854984e-01 -5.644302e-01 0.000000e+00  -3.179165e-01 -3.930856e-01 0.000000e+00  -2.404867e-01 -7.657575e-01 0.000000e+00  -1.862200e-01 -9.944613e-01 0.000000e+00  -2.681769e-01 -7.005294e-01 0.000000e+00  -2.934175e-01 -6.318939e-01 0.000000e+00  -2.396435e-01 -8.477624e-01 0.000000e+00  -8.019586e-02 -1.355021e+00 0.000000e+00  -8.844443e-02 -1.233267e+00 0.000000e+00  0.000000e+00 -1.545729e+00 0.000000e+00  -1.463540e-01 -1.175093e+00 0.000000e+00  -2.190297e-01 -9.123366e-01 0.000000e+00  -1.992607e-01 -1.005983e+00 0.000000e+00  -7.119823e-02 -1.467153e+00 0.000000e+00  0.000000e+00 -1.784690e+00 0.000000e+00  -6.131561e-02 -1.568740e+00 0.000000e+00  -1.538023e-01 -1.173772e+00 0.000000e+00  -1.776187e-01 -1.093338e+00 0.000000e+00  -1.123433e-01 -1.365157e+00 0.000000e+00  -3.414099e-01 -3.455619e-01 0.000000e+00  -3.629995e-01 -2.972497e-01 0.000000e+00  -3.829200e-01 -2.483032e-01 0.000000e+00  -3.353180e-01 -4.480347e-01 0.000000e+00  -3.165244e-01 -5.602106e-01 0.000000e+00  -1.747877e-01 -9.532999e-01 0.000000e+00  -2.538834e-01 -7.084868e-01 0.000000e+00  -3.217486e-01 -5.005583e-01 0.000000e+00  -2.371698e-01 -8.129881e-01 0.000000e+00  -2.841114e-01 -6.819131e-01 0.000000e+00  -4.342789e-01 -9.930077e-02 0.000000e+00  -4.184431e-01 -1.491546e-01 0.000000e+00  -4.013553e-01 -1.988820e-01 0.000000e+00  -4.133463e-01 -1.969326e-01 0.000000e+00  -3.755180e-01 -3.301834e-01 0.000000e+00  -3.773659e-01 -3.249121e-01 0.000000e+00  -3.573705e-01 -4.090397e-01 0.000000e+00  -3.377670e-01 -4.858185e-01 0.000000e+00  -4.028024e-02 4.028024e-02 0.000000e+00  -4.680235e-02 4.043420e-02 0.000000e+00  -4.008585e-02 8.855359e-03 0.000000e+00  -3.947392e-02 -4.711574e-02 0.000000e+00  -8.855359e-03 4.008585e-02 0.000000e+00  3.180395e-02 5.714174e-02 0.000000e+00  4.711574e-02 3.947392e-02 0.000000e+00  -3.486908e-02 -3.275038e-01 0.000000e+00  -3.301790e-02 -4.528748e-01 0.000000e+00  -3.667545e-02 -2.172738e-01 0.000000e+00  -3.827547e-02 -1.232908e-01 0.000000e+00  2.361204e-02 -2.360841e-01 0.000000e+00  9.600723e-02 -2.529890e-01 0.000000e+00  8.670814e-02 -1.564113e-01 0.000000e+00  3.275038e-01 3.486908e-02 0.000000e+00  4.528748e-01 3.301790e-02 0.000000e+00  4.302637e-01 5.942263e-02 0.000000e+00  2.360841e-01 -2.361204e-02 0.000000e+00  2.529890e-01 -9.600723e-02 0.000000e+00  1.564113e-01 -8.670814e-02 0.000000e+00  2.172738e-01 3.667545e-02 0.000000e+00  1.977472e-01 6.145570e-02 0.000000e+00  1.232908e-01 3.827547e-02 0.000000e+00  9.879647e-03 -6.190664e-02 0.000000e+00  7.522991e-02 -7.522991e-02 0.000000e+00  6.190664e-02 -9.879647e-03 0.000000e+00  -2.249881e-02 -1.695821e+00 0.000000e+00  -1.553770e-02 -1.916808e+00 0.000000e+00  -2.486581e-02 -1.483638e+00 0.000000e+00  -2.608232e-02 -1.281698e+00 0.000000e+00  1.913586e-02 -1.502965e+00 0.000000e+00  6.497960e-02 -1.510408e+00 0.000000e+00  8.026312e-02 -1.310076e+00 0.000000e+00  -2.964661e-02 -7.458387e-01 0.000000e+00  -3.124706e-02 -5.925464e-01 0.000000e+00  -2.826840e-02 -9.121650e-01 0.000000e+00  -2.711189e-02 -1.090976e+00 0.000000e+00  3.460481e-02 -7.660698e-01 0.000000e+00  1.081118e-01 -6.285764e-01 0.000000e+00  1.061410e-01 -7.804533e-01 0.000000e+00  3.624314e-01 -7.782292e-01 0.000000e+00  4.865957e-01 -6.252998e-01 0.000000e+00  4.627672e-01 -7.589545e-01 0.000000e+00  2.697211e-01 -7.875755e-01 0.000000e+00  2.801189e-01 -6.421391e-01 0.000000e+00  1.843932e-01 -7.879740e-01 0.000000e+00  2.529828e-01 -9.445636e-01 0.000000e+00  2.295578e-01 -1.112913e+00 0.000000e+00  1.586450e-01 -1.122700e+00 0.000000e+00  3.008546e-02 -1.110552e+00 0.0000