<?xml version="1.0"?>
<VTKFile type="UnstructuredGrid"  version="0.1"  >
<UnstructuredGrid>
<Piece  NumberOfPoints="3201" NumberOfCells="6144">
<Points>
<DataArray  type="Float32"  NumberOfComponents="3"  format="ascii">0 0 0  1 0 0  1 1 0  0 1 0  -1 1 0  -1 0 0  -1 -1 0  0 -1 0  0.5 0.5 0  0 0.5 0  0.5 0 0  0.5 1 0  1 0.5 0  -0.5 0.5 0  -0.5 0 0  -1 0.5 0  -0.5 1 0  -0.5 -0.5 0  0 -0.5 0  -0.5 -1 0  -1 -0.5 0  0.25 0.25 0  0.25 0 0  0 0.25 0  0.5 0.25 0  0.75 0 0  0.75 0.25 0  0.25 0.5 0  0 0.75 0  0.25 0.75 0  0.75 0.5 0  1 0.25 0  0.75 0.75 0  1 0.75 0  0.75 1 0  0.5 0.75 0  0.25 1 0  -0.25 0.25 0  -0.25 0 0  -0.25 0.5 0  -0.25 0.75 0  -0.5 0.25 0  -0.75 0 0  -0.75 0.25 0  -0.5 0.75 0  -0.25 1 0  -0.75 0.75 0  -0.75 1 0  -1 0.75 0  -0.75 0.5 0  -1 0.25 0  -0.25 -0.25 0  0 -0.25 0  -0.5 -0.25 0  -0.75 -0.25 0  -0.25 -0.5 0  0 -0.75 0  -0.25 -0.75 0  -0.75 -0.5 0  -1 -0.25 0  -0.75 -0.75 0  -1 -0.75 0  -0.75 -1 0  -0.5 -0.75 0  -0.25 -1 0  0.125 0.125 0  0 0.125 0  0.125 0 0  0.125 0.25 0  0 0.375 0  0.125 0.375 0  0.25 0.125 0  0.375 0 0  0.375 0.125 0  0.75 0.125 0  0.875 0.125 0  0.875 0 0  0.625 0.25 0  0.625 0.375 0  0.5 0.375 0  0.625 0.125 0  0.625 0 0  0.5 0.125 0  0.125 0.75 0  0.125 0.875 0  0 0.875 0  0.25 0.625 0  0.375 0.625 0  0.375 0.5 0  0.125 0.625 0  0 0.625 0  0.125 0.5 0  0.375 0.375 0  0.25 0.375 0  0.375 0.25 0  0.875 0.25 0  1 0.125 0  0.75 0.375 0  0.625 0.5 0  0.875 0.375 0  1 0.375 0  0.875 0.5 0  0.875 0.875 0  0.875 1 0  1 0.875 0  0.75 0.875 0  0.625 1 0  0.625 0.875 0  0.875 0.75 0  1 0.625 0  0.875 0.625 0  0.25 0.875 0  0.125 1 0  0.375 0.75 0  0.5 0.625 0  0.375 0.875 0  0.375 1 0  0.5 0.875 0  0.625 0.625 0  0.625 0.75 0  0.75 0.625 0  -0.125 0.125 0  -0.125 0 0  -0.125 0.25 0  -0.125 0.375 0  -0.25 0.125 0  -0.375 0 0  -0.375 0.125 0  -0.125 0.75 0  -0.125 0.875 0  -0.125 0.625 0  -0.125 0.5 0  -0.25 0.625 0  -0.375 0.625 0  -0.375 0.5 0  -0.75 0.125 0  -0.875 0.125 0  -0.875 0 0  -0.625 0.25 0  -0.625 0.375 0  -0.5 0.375 0  -0.625 0.125 0  -0.625 0 0  -0.5 0.125 0  -0.25 0.375 0  -0.375 0.375 0  -0.375 0.25 0  -0.25 0.875 0  -0.125 1 0  -0.375 0.75 0  -0.5 0.625 0  -0.375 0.875 0  -0.375 1 0  -0.5 0.875 0  -0.875 0.875 0  -1 0.875 0  -0.875 1 0  -0.875 0.75 0  -1 0.625 0  -0.875 0.625 0  -0.75 0.875 0  -0.625 1 0  -0.625 0.875 0  -0.875 0.25 0  -1 0.125 0  -0.75 0.375 0  -0.625 0.5 0  -0.875 0.375 0  -1 0.375 0  -0.875 0.5 0  -0.625 0.625 0  -0.75 0.625 0  -0.625 0.75 0  -0.125 -0.125 0  0 -0.125 0  -0.25 -0.125 0  -0.375 -0.125 0  -0.125 -0.25 0  0 -0.375 0  -0.125 -0.375 0  -0.75 -0.125 0  -0.875 -0.125 0  -0.625 -0.125 0  -0.5 -0.125 0  -0.625 -0.25 0  -0.625 -0.375 0  -0.5 -0.375 0  -0.125 -0.75 0  -0.125 -0.875 0  0 -0.875 0  -0.25 -0.625 0  -0.375 -0.625 0  -0.375 -0.5 0  -0.125 -0.625 0  0 -0.625 0  -0.125 -0.5 0  -0.375 -0.25 0  -0.375 -0.375 0  -0.25 -0.375 0  -0.875 -0.25 0  -1 -0.125 0  -0.75 -0.375 0  -0.625 -0.5 0  -0.875 -0.375 0  -1 -0.375 0  -0.875 -0.5 0  -0.875 -0.875 0  -0.875 -1 0  -1 -0.875 0  -0.75 -0.875 0  -0.625 -1 0  -0.625 -0.875 0  -0.875 -0.75 0  -1 -0.625 0  -0.875 -0.625 0  -0.25 -0.875 0  -0.125 -1 0  -0.375 -0.75 0  -0.5 -0.625 0  -0.375 -0.875 0  -0.375 -1 0  -0.5 -0.875 0  -0.625 -0.625 0  -0.625 -0.75 0  -0.75 -0.625 0  0.0625 0.0625 0  0.0625 0 0  0 0.0625 0  0.125 0.0625 0  0.1875 0 0  0.1875 0.0625 0  0.0625 0.125 0  0 0.1875 0  0.0625 0.1875 0  0.0625 0.375 0  0.0625 0.4375 0  0 0.4375 0  0.125 0.3125 0  0.1875 0.3125 0  0.1875 0.25 0  0.0625 0.3125 0  0 0.3125 0  0.0625 0.25 0  0.375 0.0625 0  0.4375 0.0625 0  0.4375 0 0  0.3125 0.125 0  0.3125 0.1875 0  0.25 0.1875 0  0.3125 0.0625 0  0.3125 0 0  0.25 0.0625 0  0.1875 0.1875 0  0.1875 0.125 0  0.125 0.1875 0  0.875 0.0625 0  0.9375 0 0  0.9375 0.0625 0  0.8125 0.0625 0  0.8125 0 0  0.75 0.0625 0  0.8125 0.125 0  0.8125 0.1875 0  0.75 0.1875 0  0.5625 0.375 0  0.5 0.4375 0  0.5625 0.4375 0  0.5625 0.3125 0  0.5 0.3125 0  0.5625 0.25 0  0.625 0.3125 0  0.6875 0.3125 0  0.6875 0.25 0  0.5625 0.0625 0  0.5 0.0625 0  0.5625 0 0  0.5625 0.125 0  0.5 0.1875 0  0.5625 0.1875 0  0.625 0.0625 0  0.6875 0 0  0.6875 0.0625 0  0.625 0.1875 0  0.6875 0.125 0  0.6875 0.1875 0  0.0625 0.875 0  0 0.9375 0  0.0625 0.9375 0  0.0625 0.8125 0  0 0.8125 0  0.0625 0.75 0  0.125 0.8125 0  0.1875 0.8125 0  0.1875 0.75 0  0.375 0.5625 0  0.4375 0.5 0  0.4375 0.5625 0  0.3125 0.5625 0  0.3125 0.5 0  0.25 0.5625 0  0.3125 0.625 0  0.3125 0.6875 0  0.25 0.6875 0  0.0625 0.5625 0  0.0625 0.5 0  0 0.5625 0  0.125 0.5625 0  0.1875 0.5 0  0.1875 0.5625 0  0.0625 0.625 0  0 0.6875 0  0.0625 0.6875 0  0.1875 0.625 0  0.125 0.6875 0  0.1875 0.6875 0  0.4375 0.4375 0  0.4375 0.375 0  0.4375 0.3125 0  0.375 0.4375 0  0.3125 0.4375 0  0.125 0.4375 0  0.1875 0.375 0  0.25 0.3125 0  0.1875 0.4375 0  0.25 0.4375 0  0.4375 0.125 0  0.375 0.1875 0  0.3125 0.25 0  0.4375 0.1875 0  0.4375 0.25 0  0.3125 0.3125 0  0.375 0.3125 0  0.3125 0.375 0  0.9375 0.125 0  1 0.0625 0  0.875 0.1875 0  0.8125 0.25 0  0.9375 0.1875 0  1 0.1875 0  0.9375 0.25 0  0.625 0.4375 0  0.5625 0.5 0  0.6875 0.375 0  0.75 0.3125 0  0.6875 0.4375 0  0.6875 0.5 0  0.75 0.4375 0  0.9375 0.4375 0  0.9375 0.5 0  1 0.4375 0  0.875 0.4375 0  0.8125 0.5 0  0.8125 0.4375 0  0.9375 0.375 0  1 0.3125 0  0.9375 0.3125 0  0.8125 0.3125 0  0.8125 0.375 0  0.875 0.3125 0  0.9375 0.9375 0  1 0.9375 0  0.9375 1 0  0.9375 0.875 0  1 0.8125 0  0.9375 0.8125 0  0.875 0.9375 0  0.8125 1 0  0.8125 0.9375 0  0.625 0.9375 0  0.5625 0.9375 0  0.5625 1 0  0.6875 0.875 0  0.6875 0.8125 0  0.75 0.8125 0  0.6875 0.9375 0  0.6875 1 0  0.75 0.9375 0  0.9375 0.625 0  0.9375 0.5625 0  1 0.5625 0  0.875 0.6875 0  0.8125 0.6875 0  0.8125 0.75 0  0.9375 0.6875 0  1 0.6875 0  0.9375 0.75 0  0.8125 0.8125 0  0.875 0.8125 0  0.8125 0.875 0  0.125 0.9375 0  0.0625 1 0  0.1875 0.875 0  0.25 0.8125 0  0.1875 0.9375 0  0.1875 1 0  0.25 0.9375 0  0.4375 0.625 0  0.5 0.5625 0  0.375 0.6875 0  0.3125 0.75 0  0.4375 0.6875 0  0.5 0.6875 0  0.4375 0.75 0  0.4375 0.9375 0  0.5 0.9375 0  0.4375 1 0  0.4375 0.875 0  0.5 0.8125 0  0.4375 0.8125 0  0.375 0.9375 0  0.3125 1 0  0.3125 0.9375 0  0.3125 0.8125 0  0.375 0.8125 0  0.3125 0.875 0  0.5625 0.5625 0  0.625 0.5625 0  0.6875 0.5625 0  0.5625 0.625 0  0.5625 0.6875 0  0.5625 0.875 0  0.625 0.8125 0  0.6875 0.75 0  0.5625 0.8125 0  0.5625 0.75 0  0.875 0.5625 0  0.8125 0.5625 0  0.75 0.5625 0  0.8125 0.625 0  0.75 0.6875 0  0.6875 0.625 0  0.6875 0.6875 0  0.625 0.6875 0  -0.0625 0.0625 0  -0.0625 0 0  -0.0625 0.125 0  -0.0625 0.1875 0  -0.125 0.0625 0  -0.1875 0 0  -0.1875 0.0625 0  -0.0625 0.375 0  -0.0625 0.4375 0  -0.0625 0.3125 0  -0.0625 0.25 0  -0.125 0.3125 0  -0.1875 0.3125 0  -0.1875 0.25 0  -0.375 0.0625 0  -0.4375 0.0625 0  -0.4375 0 0  -0.3125 0.125 0  -0.3125 0.1875 0  -0.25 0.1875 0  -0.3125 0.0625 0  -0.3125 0 0  -0.25 0.0625 0  -0.125 0.1875 0  -0.1875 0.1875 0  -0.1875 0.125 0  -0.0625 0.875 0  -0.0625 0.9375 0  -0.0625 0.8125 0  -0.0625 0.75 0  -0.125 0.8125 0  -0.1875 0.8125 0  -0.1875 0.75 0  -0.0625 0.5625 0  -0.0625 0.5 0  -0.0625 0.625 0  -0.0625 0.6875 0  -0.125 0.5625 0  -0.1875 0.5 0  -0.1875 0.5625 0  -0.375 0.5625 0  -0.4375 0.5 0  -0.4375 0.5625 0  -0.3125 0.5625 0  -0.3125 0.5 0  -0.25 0.5625 0  -0.3125 0.625 0  -0.3125 0.6875 0  -0.25 0.6875 0  -0.125 0.6875 0  -0.1875 0.625 0  -0.1875 0.6875 0  -0.875 0.0625 0  -0.9375 0 0  -0.9375 0.0625 0  -0.8125 0.0625 0  -0.8125 0 0  -0.75 0.0625 0  -0.8125 0.125 0  -0.8125 0.1875 0  -0.75 0.1875 0  -0.5625 0.375 0  -0.5 0.4375 0  -0.5625 0.4375 0  -0.5625 0.3125 0  -0.5 0.3125 0  -0.5625 0.25 0  -0.625 0.3125 0  -0.6875 0.3125 0  -0.6875 0.25 0  -0.5625 0.0625 0  -0.5 0.0625 0  -0.5625 0 0  -0.5625 0.125 0  -0.5 0.1875 0  -0.5625 0.1875 0  -0.625 0.0625 0  -0.6875 0 0  -0.6875 0.0625 0  -0.625 0.1875 0  -0.6875 0.125 0  -0.6875 0.1875 0  -0.125 0.4375 0  -0.1875 0.375 0  -0.25 0.3125 0  -0.1875 0.4375 0  -0.25 0.4375 0  -0.4375 0.4375 0  -0.375 0.4375 0  -0.3125 0.4375 0  -0.4375 0.375 0  -0.4375 0.3125 0  -0.4375 0.125 0  -0.375 0.1875 0  -0.3125 0.25 0  -0.4375 0.1875 0  -0.4375 0.25 0  -0.3125 0.3125 0  -0.3125 0.375 0  -0.375 0.3125 0  -0.125 0.9375 0  -0.0625 1 0  -0.1875 0.875 0  -0.25 0.8125 0  -0.1875 0.9375 0  -0.1875 1 0  -0.25 0.9375 0  -0.4375 0.625 0  -0.5 0.5625 0  -0.375 0.6875 0  -0.3125 0.75 0  -0.4375 0.6875 0  -0.5 0.6875 0  -0.4375 0.75 0  -0.4375 0.9375 0  -0.5 0.9375 0  -0.4375 1 0  -0.4375 0.875 0  -0.5 0.8125 0  -0.4375 0.8125 0  -0.375 0.9375 0  -0.3125 1 0  -0.3125 0.9375 0  -0.3125 0.8125 0  -0.375 0.8125 0  -0.3125 0.875 0  -0.9375 0.9375 0  -0.9375 1 0  -1 0.9375 0  -0.875 0.9375 0  -0.8125 1 0  -0.8125 0.9375 0  -0.9375 0.875 0  -1 0.8125 0  -0.9375 0.8125 0  -0.9375 0.625 0  -0.9375 0.5625 0  -1 0.5625 0  -0.875 0.6875 0  -0.8125 0.6875 0  -0.8125 0.75 0  -0.9375 0.6875 0  -1 0.6875 0  -0.9375 0.75 0  -0.625 0.9375 0  -0.5625 0.9375 0  -0.5625 1 0  -0.6875 0.875 0  -0.6875 0.8125 0  -0.75 0.8125 0  -0.6875 0.9375 0  -0.6875 1 0  -0.75 0.9375 0  -0.8125 0.8125 0  -0.8125 0.875 0  -0.875 0.8125 0  -0.9375 0.125 0  -1 0.0625 0  -0.875 0.1875 0  -0.8125 0.25 0  -0.9375 0.1875 0  -1 0.1875 0  -0.9375 0.25 0  -0.625 0.4375 0  -0.5625 0.5 0  -0.6875 0.375 0  -0.75 0.3125 0  -0.6875 0.4375 0  -0.6875 0.5 0  -0.75 0.4375 0  -0.9375 0.4375 0  -0.9375 0.5 0  -1 0.4375 0  -0.875 0.4375 0  -0.8125 0.5 0  -0.8125 0.4375 0  -0.9375 0.375 0  -1 0.3125 0  -0.9375 0.3125 0  -0.8125 0.3125 0  -0.8125 0.375 0  -0.875 0.3125 0  -0.5625 0.5625 0  -0.5625 0.625 0  -0.5625 0.6875 0  -0.625 0.5625 0  -0.6875 0.5625 0  -0.875 0.5625 0  -0.8125 0.625 0  -0.75 0.6875 0  -0.8125 0.5625 0  -0.75 0.5625 0  -0.5625 0.875 0  -0.5625 0.8125 0  -0.5625 0.75 0  -0.625 0.8125 0  -0.6875 0.75 0  -0.625 0.6875 0  -0.6875 0.6875 0  -0.6875 0.625 0  -0.0625 -0.0625 0  0 -0.0625 0  -0.125 -0.0625 0  -0.1875 -0.0625 0  -0.0625 -0.125 0  0 -0.1875 0  -0.0625 -0.1875 0  -0.375 -0.0625 0  -0.4375 -0.0625 0  -0.3125 -0.0625 0  -0.25 -0.0625 0  -0.3125 -0.125 0  -0.3125 -0.1875 0  -0.25 -0.1875 0 
[...]
<PointData  Vectors="u"> 
<DataArray  type="Float32"  Name="u"  NumberOfComponents="3" format="ascii">0.000000e+00 0.000000e+00 0.000000e+00  0.000000e+00 0.000000e+00 0.000000e+00  0.000000e+00 0.000000e+00 0.000000e+00  0.000000e+00 -2.122426e+00 0.000000e+00  0.000000e+00 0.000000e+00 0.000000e+00  2.122426e+00 0.000000e+00 0.000000e+00  0.000000e+00 0.000000e+00 0.000000e+00  0.000000e+00 0.000000e+00 0.000000e+00  -3.176633e-01 -2.974605e-01 0.000000e+00  -5.396707e-02 -5.778293e-01 0.000000e+00  0.000000e+00 1.079341e-01 0.000000e+00  0.000000e+00 -1.420459e+00 0.000000e+00  -4.527214e-01 0.000000e+00 0.000000e+00  6.151238e-01 -6.151238e-01 0.000000e+00  5.778293e-01 5.396707e-02 0.000000e+00  1.873181e+00 0.000000e+00 0.000000e+00  0.000000e+00 -1.873181e+00 0.000000e+00  2.974605e-01 3.176633e-01 0.000000e+00  -1.079341e-01 0.000000e+00 0.000000e+00  0.000000e+00 4.527214e-01 0.000000e+00  1.420459e+00 0.000000e+00 0.000000e+00  -1.476356e-01 -3.327886e-02 0.000000e+00  0.000000e+00 1.158717e-01 0.000000e+00  -5.793584e-02 -1.088264e-01 0.000000e+00  -2.063969e-01 3.904186e-03 0.000000e+00  0.000000e+00 6.797208e-02 0.000000e+00  -2.498997e-01 1.390062e-02 0.000000e+00  -2.077394e-01 -4.449822e-01 0.000000e+00  -3.398604e-02 -1.273444e+00 0.000000e+00  -1.629907e-01 -1.075672e+00 0.000000e+00  -3.951943e-01 -1.467681e-01 0.000000e+00  -2.827326e-01 0.000000e+00 0.000000e+00  -3.402390e-01 -4.101651e-01 0.000000e+00  -3.957279e-01 0.000000e+00 0.000000e+00  0.000000e+00 -7.696040e-01 0.000000e+00  -2.661903e-01 -7.773924e-01 0.000000e+00  0.000000e+00 -1.905418e+00 0.000000e+00  1.809144e-01 -1.809144e-01 0.000000e+00  1.088264e-01 5.793584e-02 0.000000e+00  2.038353e-01 -6.513791e-01 0.000000e+00  1.490901e-01 -1.325572e+00 0.000000e+00  6.513791e-01 -2.038353e-01 0.000000e+00  1.273444e+00 3.398604e-02 0.000000e+00  1.325572e+00 -1.490901e-01 0.000000e+00  4.129584e-01 -1.172587e+00 0.000000e+00  0.000000e+00 -2.188151e+00 0.000000e+00  7.504041e-01 -7.504041e-01 0.000000e+00  0.000000e+00 -1.165332e+00 0.000000e+00  1.165332e+00 0.000000e+00 0.000000e+00  1.172587e+00 -4.129584e-01 0.000000e+00  2.188151e+00 0.000000e+00 0.000000e+00  3.327886e-02 1.476356e-01 0.000000e+00  -1.158717e-01 0.000000e+00 0.000000e+00  4.449822e-01 2.077394e-01 0.000000e+00  1.075672e+00 1.629907e-01 0.000000e+00  -3.904186e-03 2.063969e-01 0.000000e+00  -6.797208e-02 0.000000e+00 0.000000e+00  -1.390062e-02 2.498997e-01 0.000000e+00  7.773924e-01 2.661903e-01 0.000000e+00  1.905418e+00 0.000000e+00 0.000000e+00  4.101651e-01 3.402390e-01 0.000000e+00  7.696040e-01 0.000000e+00 0.000000e+00  0.000000e+00 3.957279e-01 0.000000e+00  1.467681e-01 3.951943e-01 0.000000e+00  0.000000e+00 2.827326e-01 0.000000e+00  -6.552073e-02 5.724350e-02 0.000000e+00  -4.988958e-02 2.036011e-02 0.000000e+00  0.000000e+00 9.977916e-02 0.000000e+00  -1.065751e-01 -6.606307e-02 0.000000e+00  -5.834138e-02 -3.121652e-01 0.000000e+00  -1.276824e-01 -2.595853e-01 0.000000e+00  -8.208294e-02 7.746818e-02 0.000000e+00  0.000000e+00 1.166828e-01 0.000000e+00  -9.670238e-02 8.420649e-02 0.000000e+00  -1.316181e-01 5.434763e-02 0.000000e+00  -1.406774e-01 3.058544e-02 0.000000e+00  0.000000e+00 3.748991e-02 0.000000e+00  -2.295801e-01 1.187670e-02 0.000000e+00  -3.126045e-01 -8.633422e-02 0.000000e+00  -2.787543e-01 -1.232455e-01 0.000000e+00  -1.213047e-01 7.137816e-02 0.000000e+00  0.000000e+00 9.148943e-02 0.000000e+00  -1.097098e-01 8.155857e-02 0.000000e+00  -9.507869e-02 -1.189140e+00 0.000000e+00  -5.380330e-02 -1.601994e+00 0.000000e+00  -1.874495e-02 -1.694554e+00 0.000000e+00  -1.991994e-01 -7.347758e-01 0.000000e+00  -2.628784e-01 -6.305894e-01 0.000000e+00  -2.681035e-01 -3.720367e-01 0.000000e+00  -1.214370e-01 -8.258151e-01 0.000000e+00  -4.574471e-02 -8.996773e-01 0.000000e+00  -1.323244e-01 -5.146856e-01 0.000000e+00  -2.388394e-01 -1.641550e-01 0.000000e+00  -1.901240e-01 -2.095640e-01 0.000000e+00  -1.796137e-01 -1.065145e-02 0.000000e+00  -2.676412e-01 1.002843e-02 0.000000e+00  -1.483667e-01 0.000000e+00 0.000000e+00  -3.418712e-01 -5.325507e-02 0.000000e+00  -3.593913e-01 -2.221181e-01 0.000000e+00  -3.672704e-01 -2.427474e-02 0.000000e+00  -3.889521e-01 0.000000e+00 0.000000e+00  -4.261591e-01 -7.233800e-02 0.000000e+00  -2.300583e-01 -2.968558e-01 0.000000e+00  0.000000e+00 -3.971325e-01 0.000000e+00  -2.469543e-01 0.000000e+00 0.000000e+00  -2.107693e-01 -5.783304e-01 0.000000e+00  0.000000e+00 -1.112535e+00 0.000000e+00  -1.886535e-01 -8.405430e-01 0.000000e+00  -3.699253e-01 -2.089915e-01 0.000000e+00  -4.597046e-01 0.000000e+00 0.000000e+00  -4.312489e-01 -1.340131e-01 0.000000e+00  -9.742733e-02 -1.465865e+00 0.000000e+00  0.000000e+00 -2.066053e+00 0.000000e+00  -2.191968e-01 -9.370229e-01 0.000000e+00  -3.156582e-01 -5.162371e-01 0.000000e+00  -1.330698e-01 -1.289530e+00 0.000000e+00  0.000000e+00 -1.687157e+00 0.000000e+00  -1.630545e-01 -1.079225e+00 0.000000e+00  -3.601571e-01 -3.940486e-01 0.000000e+00  -3.060209e-01 -6.006453e-01 0.000000e+00  -3.982783e-01 -2.660115e-01 0.000000e+00  8.277233e-03 -8.277233e-03 0.000000e+00  -2.036011e-02 4.988958e-02 0.000000e+00  2.910693e-02 -1.481460e-01 0.000000e+00  4.347586e-02 -3.562877e-01 0.000000e+00  1.481460e-01 -2.910693e-02 0.000000e+00  3.121652e-01 5.834138e-02 0.000000e+00  3.562877e-01 -4.347586e-02 0.000000e+00  4.073106e-02 -1.320758e+00 0.000000e+00  2.321786e-02 -1.742672e+00 0.000000e+00  5.005880e-02 -9.471197e-01 0.000000e+00  5.076583e-02 -6.243953e-01 0.000000e+00  1.873227e-01 -9.643558e-01 0.000000e+00  3.492126e-01 -9.431939e-01 0.000000e+00  3.913490e-01 -6.507910e-01 0.000000e+00  1.320758e+00 -4.073106e-02 0.000000e+00  1.742672e+00 -2.321786e-02 0.000000e+00  1.694554e+00 1.874495e-02 0.000000e+00  9.643558e-01 -1.873227e-01 0.000000e+00  9.431939e-01 -3.492126e-01 0.000000e+00  6.507910e-01 -3.913490e-01 0.000000e+00  9.471197e-01 -5.005880e-02 0.000000e+00  8.996773e-01 4.574471e-02 0.000000e+00  6.243953e-01 -5.076583e-02 0.000000e+00  2.007754e-01 -3.891777e-01 0.000000e+00  4.029944e-01 -4.029944e-01 0.000000e+00  3.891777e-01 -2.007754e-01 0.000000e+00  8.739890e-02 -1.733506e+00 0.000000e+00  0.000000e+00 -2.214420e+00 0.000000e+00  2.724519e-01 -1.278894e+00 0.000000e+00  5.377763e-01 -8.756284e-01 0.000000e+00  1.573446e-01 -1.656801e+00 0.000000e+00  0.000000e+00 -2.076109e+00 0.000000e+00  2.353925e-01 -1.505384e+00 0.000000e+00  5.269141e-01 -5.269141e-01 0.000000e+00  6.440868e-01 0.000000e+00 0.000000e+00  0.000000e+00 -6.440868e-01 0.000000e+00  9.482558e-01 -4.197608e-01 0.000000e+00  1.572239e+00 0.000000e+00 0.000000e+00  1.271792e+00 -3.226666e-01 0.000000e+00  4.197608e-01 -9.482558e-01 0.000000e+00  0.000000e+00 -1.572239e+00 0.000000e+00  3.226666e-01 -1.271792e+00 0.000000e+00  1.733506e+00 -8.739890e-02 0.000000e+00  2.214420e+00 0.000000e+00 0.000000e+00  1.278894e+00 -2.724519e-01 0.000000e+00  8.756284e-01 -5.377763e-01 0.000000e+00  1.656801e+00 -1.573446e-01 0.000000e+00  2.076109e+00 0.000000e+00 0.000000e+00  1.505384e+00 -2.353925e-01 0.000000e+00  7.542057e-01 -7.542057e-01 0.000000e+00  9.989236e-01 -5.720324e-01 0.000000e+00  5.720324e-01 -9.989236e-01 0.000000e+00  -5.724350e-02 6.552073e-02 0.000000e+00  -9.977916e-02 0.000000e+00 0.000000e+00  6.606307e-02 1.065751e-01 0.000000e+00  2.595853e-01 1.276824e-01 0.000000e+00  -7.746818e-02 8.208294e-02 0.000000e+00  -1.166828e-01 0.000000e+00 0.000000e+00  -8.420649e-02 9.670238e-02 0.000000e+00  1.189140e+00 9.507869e-02 0.000000e+00  1.601994e+00 5.380330e-02 0.000000e+00  8.258151e-01 1.214370e-01 0.000000e+00  5.146856e-01 1.323244e-01 0.000000e+00  7.347758e-01 1.991994e-01 0.000000e+00  6.305894e-01 2.628784e-01 0.000000e+00  3.720367e-01 2.681035e-01 0.000000e+00  -5.434763e-02 1.316181e-01 0.000000e+00  -3.058544e-02 1.406774e-01 0.000000e+00  -3.748991e-02 0.000000e+00 0.000000e+00  -1.187670e-02 2.295801e-01 0.000000e+00  8.633422e-02 3.126045e-01 0.000000e+00  1.232455e-01 2.787543e-01 0.000000e+00  -7.137816e-02 1.213047e-01 0.000000e+00  -9.148943e-02 0.000000e+00 0.000000e+00  -8.155857e-02 1.097098e-01 0.000000e+00  2.095640e-01 1.901240e-01 0.000000e+00  1.641550e-01 2.388394e-01 0.000000e+00  1.065145e-02 1.796137e-01 0.000000e+00  1.465865e+00 9.742733e-02 0.000000e+00  2.066053e+00 0.000000e+00 0.000000e+00  9.370229e-01 2.191968e-01 0.000000e+00  5.162371e-01 3.156582e-01 0.000000e+00  1.289530e+00 1.330698e-01 0.000000e+00  1.687157e+00 0.000000e+00 0.000000e+00  1.079225e+00 1.630545e-01 0.000000e+00  2.968558e-01 2.300583e-01 0.000000e+00  0.000000e+00 2.469543e-01 0.000000e+00  3.971325e-01 0.000000e+00 0.000000e+00  2.089915e-01 3.699253e-01 0.000000e+00  0.000000e+00 4.597046e-01 0.000000e+00  1.340131e-01 4.312489e-01 0.000000e+00  5.783304e-01 2.107693e-01 0.000000e+00  1.112535e+00 0.000000e+00 0.000000e+00  8.405430e-01 1.886535e-01 0.000000e+00  -1.002843e-02 2.676412e-01 0.000000e+00  0.000000e+00 1.483667e-01 0.000000e+00  5.325507e-02 3.418712e-01 0.000000e+00  2.221181e-01 3.593913e-01 0.000000e+00  2.427474e-02 3.672704e-01 0.000000e+00  0.000000e+00 3.889521e-01 0.000000e+00  7.233800e-02 4.261591e-01 0.000000e+00  3.940486e-01 3.601571e-01 0.000000e+00  2.660115e-01 3.982783e-01 0.000000e+00  6.006453e-01 3.060209e-01 0.000000e+00  -3.364179e-02 7.104695e-02 0.000000e+00  0.000000e+00 7.939703e-02 0.000000e+00  -3.969851e-02 4.748190e-02 0.000000e+00  -3.552850e-02 8.899953e-02 0.000000e+00  0.000000e+00 1.104545e-01 0.000000e+00  -3.875293e-02 9.994733e-02 0.000000e+00  -5.583440e-02 4.043434e-02 0.000000e+00  -5.522723e-02 -3.373486e-02 0.000000e+00  -7.028249e-02 -1.300608e-02 0.000000e+00  -8.889604e-02 -2.858297e-01 0.000000e+00  -8.932663e-02 -4.092608e-01 0.000000e+00  -5.667208e-02 -4.376587e-01 0.000000e+00  -1.193181e-01 -1.546793e-01 0.000000e+00  -1.475504e-01 -1.331910e-01 0.000000e+00  -1.286603e-01 -4.829419e-02 0.000000e+00  -8.584775e-02 -1.778837e-01 0.000000e+00  -5.883870e-02 -2.021814e-01 0.000000e+00  -7.985401e-02 -8.646575e-02 0.000000e+00  -4.927799e-02 1.084083e-01 0.000000e+00  -5.256481e-02 1.058514e-01 0.000000e+00  0.000000e+00 1.133442e-01 0.000000e+00  -8.960826e-02 8.219920e-02 0.000000e+00  -1.295579e-01 3.884037e-02 0.000000e+00  -1.175324e-01 3.073853e-02 0.000000e+00  -4.584345e-02 1.086241e-01 0.000000e+00  0.000000e+00 1.176774e-01 0.000000e+00  -4.229861e-02 1.060528e-01 0.000000e+00  -1.042039e-01 1.962381e-02 0.000000e+00  -7.408900e-02 6.941073e-02 0.000000e+00  -8.892086e-02 5.067113e-03 0.000000e+00  -7.119679e-02 3.573917e-02 0.000000e+00  0.000000e+00 1.962107e-02 0.000000e+00  -7.322094e-02 1.874217e-02 0.000000e+00  -6.900190e-02 5.099333e-02 0.000000e+00  0.000000e+00 5.360428e-02 0.000000e+00  -6.664709e-02 6.451445e-02 0.000000e+00  -1.363078e-01 4.331218e-02 0.000000e+00  -2.002286e-01 3.055467e-02 0.000000e+00  -1.932492e-01 3.747395e-02 0.000000e+00  -2.963231e-01 -1.043111e-01 0.000000e+00  -3.028861e-01 -2.046304e-01 0.000000e+00  -3.227788e-01 -1.768755e-01 0.000000e+00  -2.611190e-01 -4.239037e-02 0.000000e+00  -2.462344e-01 -5.362757e-02 0.000000e+00  -2.183794e-01 8.656508e-03 0.000000e+00  -2.749658e-01 -3.245163e-02 0.000000e+00  -2.878882e-01 -2.377404e-02 0.000000e+00  -2.400713e-01 1.361874e-02 0.000000e+00  -5.866324e-02 9.470441e-02 0.000000e+00  -5.569336e-02 1.012274e-01 0.000000e+00  0.000000e+00 1.006173e-01 0.000000e+00  -1.156735e-01 7.734883e-02 0.000000e+00  -1.604406e-01 4.905182e-02 0.000000e+00  -1.694220e-01 4.862533e-02 0.000000e+00  -6.147727e-02 8.638146e-02 0.000000e+00  0.000000e+00 8.060096e-02 0.000000e+00  -6.413823e-02 7.631104e-02 0.000000e+00  -1.778613e-01 4.652012e-02 0.000000e+00  -1.266171e-01 6.370333e-02 0.000000e+00  -1.857962e-01 4.279521e-02 0.000000e+00  -2.749633e-02 -1.653485e+00 0.000000e+00  -9.810536e-03 -1.919194e+00 0.000000e+00  -1.214773e-02 -1.879395e+00 0.000000e+00  -4.260845e-02 -1.438568e+00 0.000000e+00  -2.680214e-02 -1.478496e+00 0.000000e+00  -5.599761e-02 -1.235182e+00 0.000000e+00  -7.619332e-02 -1.389475e+00 0.000000e+00  -1.065416e-01 -1.331382e+00 0.000000e+00  -1.306606e-01 -1.135813e+00 0.000000e+00  -2.700549e-01 -4.951764e-01 0.000000e+00  -2.940200e-01 -3.348906e-01 0.000000e+00  -2.973127e-01 -4.488920e-01 0.000000e+00  -2.400406e-01 -5.400699e-01 0.000000e+00  -2.395064e-01 -4.087861e-01 0.000000e+00  -2.068285e-01 -5.833186e-01 0.000000e+00  -2.325910e-01 -6.841205e-01 0.000000e+00  -2.168230e-01 -8.405958e-01 0.000000e+00  -1.846548e-01 -8.989872e-01 0.000000e+00  -8.293690e-02 -6.995368e-01 0.000000e+00  -8.731150e-02 -5.473770e-01 0.000000e+00  -5.030864e-02 -7.320188e-01 0.000000e+00  -1.288117e-01 -6.635150e-01 0.000000e+00  -1.722293e-01 -4.803949e-01 0.000000e+00  -1.699277e-01 -6.246029e-01 0.000000e+00  -7.624245e-02 -8.652028e-01 0.000000e+00  -4.030048e-02 -1.080314e+00 0.000000e+00  -6.724997e-02 -1.043901e+00 0.000000e+00  -1.622883e-01 -7.821600e-01 0.000000e+00  -1.101896e-01 -1.001149e+00 0.000000e+00  -1.492260e-01 -9.526684e-01 0.000000e+00  -2.812405e-01 -2.328589e-01 0.000000e+00  -2.596880e-01 -1.431731e-01 0.000000e+00  -2.301508e-01 -6.623954e-02 0.000000e+00  -2.575222e-01 -2.615500e-01 0.000000e+00  -2.313210e-01 -2.906864e-01 0.000000e+00  -1.319676e-01 -3.798381e-01 0.000000e+00  -1.610460e-01 -2.340487e-01 0.000000e+00  -1.719115e-01 -1.136664e-01 0.000000e+00  -1.692601e-01 -3.500170e-01 0.000000e+00  -2.021163e-01 -3.202170e-01 0.000000e+00  -1.033940e-01 8.390234e-02 0.000000e+00  -1.406064e-01 4.437331e-02 0.000000e+00  -1.644330e-01 -2.082699e-02 0.000000e+00  -1.508618e-01 4.769193e-02 0.000000e+00  -1.935261e-01 -2.480047e-03 0.000000e+00  -1.933826e-01 -9.609626e-02 0.000000e+00  -2.126409e-01 -8.034421e-02 0.000000e+00  -2.158241e-01 -1.862654e-01 0.000000e+00  -1.447080e-01 1.615180e-02 0.000000e+00  -7.505580e-02 0.000000e+00 0.000000e+00  -2.067282e-01 2.201970e-02 0.000000e+00  -2.590888e-01 1.271325e-02 0.000000e+00  -2.127259e-01 1.184345e-02 0.000000e+00  -2.181796e-01 0.000000e+00 0.000000e+00  -2.755373e-01 5.805930e-03 0.000000e+00  -3.411644e-01 -1.496147e-01 0.000000e+00  -3.393653e-01 -2.598398e-01 0.000000e+00  -3.277514e-01 -6.930833e-02 0.000000e+00  -2.999624e-01 -1.635386e-02 0.000000e+00  -3.582284e-01 -1.228866e-01 0.000000e+00  -3.779487e-01 -1.843915e-01 0.000000e+00  -3.741059e-01 -9.675017e-02 0.000000e+00  -4.153555e-01 -2.278537e-02 0.000000e+00  -4.399863e-01 -3.582428e-02 0.000000e+00  -4.270404e-01 0.000000e+00 0.000000e+00  -4.026330e-01 -4.659147e-02 0.000000e+00  -4.112403e-01 -1.093707e-01 0.000000e+00  -3.888894e-01 -7.128537e-02 0.000000e+00  -3.785871e-01 -1.150117e-02 0.000000e+00  -3.402518e-01 0.000000e+00 0.000000e+00  -3.314035e-01 -1.972435e-03 0.000000e+00  -3.112332e-01 -1.021457e-02 0.000000e+00  -3.550326e-01 -3.822120e-02 0.000000e+00  -3.217171e-01 -5.400760e-03 0.000000e+00  -1.319419e-01 -1.749527e-01 0.000000e+00  -1.365668e-01 0.000000e+00 0.000000e+00  0.000000e+00 -2.013621e-01 0.000000e+00  -2.387863e-01 -1.501180e-01 0.000000e+00  -3.327887e-01 0.000000e+00 0.000000e+00  -3.220515e-01 -1.268885e-01 0.000000e+00  -1.270126e-01 -3.454729e-01 0.000000e+00  0.000000e+00 -5.867443e-01 0.000000e+00  -1.217575e-01 -5.110449e-01 0.000000e+00  -1.037354e-01 -9.725969e-01 0.000000e+00  -9.684042e-02 -1.112754e+00 0.000000e+00  0.000000e+00 -1.271242e+00 0.000000e+00  -2.001004e-01 -7.120999e-01 0.000000e+00  -2.709293e-01 -6.059705e-01 0.000000e+00  -2.850587e-01 -4.913031e-01 0.000000e+00  -1.101560e-01 -8.251814e-01 0.000000e+00  0.000000e+00 -9.450876e-01 0.000000e+00  -1.161498e-01 -6.711341e-01 0.000000e+00  -4.460223e-01 -6.713132e-02 0.000000e+00  -4.507714e-01 -5.061073e-02 0.000000e+00  -4.642032e-01 0.000000e+00 0.000000e+00  -4.096584e-01 -1.698636e-01 0.000000e+00  -3.941747e-01 -2.531843e-01 0.000000e+00  -3.555985e-01 -3.107334e-01 0.000000e+00  -4.240739e-01 -8.536722e-02 0.000000e+00  -4.374606e-01 0.000000e+00 0.000000e+00  -3.832871e-01 -1.052952e-01 0.000000e+00  -2.982382e-01 -3.729514e-01 0.000000e+00  -3.105489e-01 -2.513417e-01 0.000000e+00  -2.207350e-01 -4.397515e-01 0.000000e+00  -2.840766e-02 -1.827037e+00 0.000000e+00  0.000000e+00 -2.119487e+00 0.000000e+00  -7.684897e-02 -1.539339e+00 0.000000e+00  -1.339957e-01 -1.264649e+00 0.000000e+00  -4.149204e-02 -1.759935e+00 0.000000e+00  0.000000e+00 -1.993685e+00 0.000000e+00  -5.294256e-02 -1.679403e+00 0.000000e+00  -2.904507e-01 -5.745270e-01 0.000000e+00  -3.221981e-01 -4.014255e-01 0.000000e+00  -2.460881e-01 -7.779571e-01 0.000000e+00  -1.923933e-01 -1.009230e+00 0.000000e+00  -2.727922e-01 -7.115037e-01 0.000000e+00  -2.972476e-01 -6.416354e-01 0.000000e+00  -2.437051e-01 -8.595769e-01 0.000000e+00  -8.139948e-02 -1.368572e+00 0.000000e+00  -8.941613e-02 -1.244985e+00 0.000000e+00  0.000000e+00 -1.559385e+00 0.000000e+00  -1.486781e-01 -1.188255e+00 0.000000e+00  -2.217172e-01 -9.233118e-01 0.000000e+00  -2.025521e-01 -1.018547e+00 0.000000e+00  -7.271649e-02 -1.482742e+00 0.000000e+00  0.000000e+00 -1.802843e+00 0.000000e+00  -6.327464e-02 -1.586659e+00 0.000000e+00  -1.589400e-01 -1.189840e+00 0.000000e+00  -1.817021e-01 -1.107593e+00 0.000000e+00  -1.160601e-01 -1.382325e+00 0.000000e+00  -3.450370e-01 -3.529585e-01 0.000000e+00  -3.660988e-01 -3.036588e-01 0.000000e+00  -3.856005e-01 -2.536908e-01 0.000000e+00  -3.388070e-01 -4.559934e-01 0.000000e+00  -3.197309e-01 -5.687210e-01 0.000000e+00  -1.763396e-01 -9.631125e-01 0.000000e+00  -2.557485e-01 -7.165104e-01 0.000000e+00  -3.237533e-01 -5.069260e-01 0.000000e+00  -2.393930e-01 -8.224560e-01 0.000000e+00  -2.868927e-01 -6.909368e-01 0.000000e+00  -4.362284e-01 -1.014901e-01 0.000000e+00  -4.205587e-01 -1.524263e-01 0.000000e+00  -4.037117e-01 -2.032216e-01 0.000000e+00  -4.153548e-01 -2.003886e-01 0.000000e+00  -3.775550e-01 -3.350300e-01 0.000000e+00  -3.799233e-01 -3.306430e-01 0.000000e+00  -3.597010e-01 -4.151030e-01 0.000000e+00  -3.404814e-01 -4.931028e-01 0.000000e+00  -3.740516e-02 3.740516e-02 0.000000e+00  -4.748190e-02 3.969851e-02 0.000000e+00  -3.316513e-02 4.905846e-03 0.000000e+00  -2.966483e-02 -5.175900e-02 0.000000e+00  -4.905846e-03 3.316513e-02 0.000000e+00  3.373486e-02 5.522723e-02 0.000000e+00  5.175900e-02 2.966483e-02 0.000000e+00  -1.951223e-02 -3.351077e-01 0.000000e+00  -1.652473e-02 -4.618256e-01 0.000000e+00  -2.277633e-02 -2.237272e-01 0.000000e+00  -2.619876e-02 -1.287644e-01 0.000000e+00  3.711890e-02 -2.442875e-01 0.000000e+00  1.087101e-01 -2.627489e-01 0.000000e+00  9.792176e-02 -1.658266e-01 0.000000e+00  3.351077e-01 1.951223e-02 0.000000e+00  4.618256e-01 1.652473e-02 0.000000e+00  4.376587e-01 5.667208e-02 0.000000e+00  2.442875e-01 -3.711890e-02 0.000000e+00  2.627489e-01 -1.087101e-01 0.000000e+00  1.658266e-01 -9.792176e-02 0.000000e+00  2.237272e-01 2.277633e-02 0.000000e+00  2.021814e-01 5.883870e-02 0.000000e+00  1.287644e-01 2.619876e-02 0.000000e+00  1.951013e-02 -6.902188e-02 0.000000e+00  8.458011e-02 -8.458011e-02 0.000000e+00  6.902188e-02 -1.951013e-02 0.000000e+00  -8.242842e-03 -1.724682e+00 0.000000e+00  -6.594437e-03 -1.952616e+00 0.000000e+00  -8.384884e-03 -1.507570e+00 0.000000e+00  -8.516840e-03 -1.301829e+00 0.000000e+00  3.288114e-02 -1.525783e+00 0.000000e+00  7.598689e-02 -1.531611e+00 0.000000e+00  9.318669e-02 -1.329062e+00 0.000000e+00  -1.176751e-02 -7.582001e-01 0.000000e+00  -1.391587e-02 -6.030704e-01 0.000000e+00  -1.013902e-02 -9.266800e-01 0.000000e+00  -9.061070e-03 -1.108039e+00 0.000000e+00  5.146282e-02 -7.791885e-01 0.000000e+00  1.231775e-01 -6.408355e-01 0.000000e+00  1.213023e-01 -7.940249e-01 0.000000e+00  3.743660e-01 -7.914995e-01 0.000000e+00  4.986505e-01 -6.377766e-01 0.000000e+00  4.741881e-01 -7.716708e-01 0.000000e+00  2.824310e-01 -8.011889e-01 0.000000e+00  2.931340e-01 -6.550205e-01 0.000000e+00  1.981719e-01 -8.016980e-01 0.000000e+00  2.650426e-01 -9.590863e-01 0.000000e+00  2.405970e-01 -1.128484e+00 0.000000e+00  1.710361e-01 -1.139059e+00 0.000000e+00  4.648626e-02 -1.127766e+00 0.000