<?xml version="1.0"?>
<VTKFile type="UnstructuredGrid"  version="0.1"  >
<UnstructuredGrid>
<Piece  NumberOfPoints="833" NumberOfCells="1536">
<Points>
<DataArray  type="Float64"  NumberOfComponents="3"  format="ascii">0 0 0  1 0 0  1 1 0  0 1 0  -1 1 0  -1 0 0  -1 -1 0  0 -1 0  0.5 0.5 0  0 0.5 0  0.5 0 0  0.5 1 0  1 0.5 0  -0.5 0.5 0  -0.5 0 0  -1 0.5 0  -0.5 1 0  -0.5 -0.5 0  0 -0.5 0  -0.5 -1 0  -1 -0.5 0  0.25 0.25 0  0.25 0 0  0 0.25 0  0.5 0.25 0  0.75 0 0  0.75 0.25 0  0.25 0.5 0  0 0.75 0  0.25 0.75 0  0.75 0.5 0  1 0.25 0  0.75 0.75 0  1 0.75 0  0.75 1 0  0.5 0.75 0  0.25 1 0  -0.25 0.25 0  -0.25 0 0  -0.25 0.5 0  -0.25 0.75 0  -0.5 0.25 0  -0.75 0 0  -0.75 0.25 0  -0.5 0.75 0  -0.25 1 0  -0.75 0.75 0  -0.75 1 0  -1 0.75 0  -0.75 0.5 0  -1 0.25 0  -0.25 -0.25 0  0 -0.25 0  -0.5 -0.25 0  -0.75 -0.25 0  -0.25 -0.5 0  0 -0.75 0  -0.25 -0.75 0  -0.75 -0.5 0  -1 -0.25 0  -0.75 -0.75 0  -1 -0.75 0  -0.75 -1 0  -0.5 -0.75 0  -0.25 -1 0  0.125 0.125 0  0 0.125 0  0.125 0 0  0.125 0.25 0  0 0.375 0  0.125 0.375 0  0.25 0.125 0  0.375 0 0  0.375 0.125 0  0.75 0.125 0  0.875 0.125 0  0.875 0 0  0.625 0.25 0  0.625 0.375 0  0.5 0.375 0  0.625 0.125 0  0.625 0 0  0.5 0.125 0  0.125 0.75 0  0.125 0.875 0  0 0.875 0  0.25 0.625 0  0.375 0.625 0  0.375 0.5 0  0.125 0.625 0  0 0.625 0  0.125 0.5 0  0.375 0.375 0  0.25 0.375 0  0.375 0.25 0  0.875 0.25 0  1 0.125 0  0.75 0.375 0  0.625 0.5 0  0.875 0.375 0  1 0.375 0  0.875 0.5 0  0.875 0.875 0  0.875 1 0  1 0.875 0  0.75 0.875 0  0.625 1 0  0.625 0.875 0  0.875 0.75 0  1 0.625 0  0.875 0.625 0  0.25 0.875 0  0.125 1 0  0.375 0.75 0  0.5 0.625 0  0.375 0.875 0  0.375 1 0  0.5 0.875 0  0.625 0.625 0  0.625 0.75 0  0.75 0.625 0  -0.125 0.125 0  -0.125 0 0  -0.125 0.25 0  -0.125 0.375 0  -0.25 0.125 0  -0.375 0 0  -0.375 0.125 0  -0.125 0.75 0  -0.125 0.875 0  -0.125 0.625 0  -0.125 0.5 0  -0.25 0.625 0  -0.375 0.625 0  -0.375 0.5 0  -0.75 0.125 0  -0.875 0.125 0  -0.875 0 0  -0.625 0.25 0  -0.625 0.375 0  -0.5 0.375 0  -0.625 0.125 0  -0.625 0 0  -0.5 0.125 0  -0.25 0.375 0  -0.375 0.375 0  -0.375 0.25 0  -0.25 0.875 0  -0.125 1 0  -0.375 0.75 0  -0.5 0.625 0  -0.375 0.875 0  -0.375 1 0  -0.5 0.875 0  -0.875 0.875 0  -1 0.875 0  -0.875 1 0  -0.875 0.75 0  -1 0.625 0  -0.875 0.625 0  -0.75 0.875 0  -0.625 1 0  -0.625 0.875 0  -0.875 0.25 0  -1 0.125 0  -0.75 0.375 0  -0.625 0.5 0  -0.875 0.375 0  -1 0.375 0  -0.875 0.5 0  -0.625 0.625 0  -0.75 0.625 0  -0.625 0.75 0  -0.125 -0.125 0  0 -0.125 0  -0.25 -0.125 0  -0.375 -0.125 0  -0.125 -0.25 0  0 -0.375 0  -0.125 -0.375 0  -0.75 -0.125 0  -0.875 -0.125 0  -0.625 -0.125 0  -0.5 -0.125 0  -0.625 -0.25 0  -0.625 -0.375 0  -0.5 -0.375 0  -0.125 -0.75 0  -0.125 -0.875 0  0 -0.875 0  -0.25 -0.625 0  -0.375 -0.625 0  -0.375 -0.5 0  -0.125 -0.625 0  0 -0.625 0  -0.125 -0.5 0  -0.375 -0.25 0  -0.375 -0.375 0  -0.25 -0.375 0  -0.875 -0.25 0  -1 -0.125 0  -0.75 -0.375 0  -0.625 -0.5 0  -0.875 -0.375 0  -1 -0.375 0  -0.875 -0.5 0  -0.875 -0.875 0  -0.875 -1 0  -1 -0.875 0  -0.75 -0.875 0  -0.625 -1 0  -0.625 -0.875 0  -0.875 -0.75 0  -1 -0.625 0  -0.875 -0.625 0  -0.25 -0.875 0  -0.125 -1 0  -0.375 -0.75 0  -0.5 -0.625 0  -0.375 -0.875 0  -0.375 -1 0  -0.5 -0.875 0  -0.625 -0.625 0  -0.625 -0.75 0  -0.75 -0.625 0  0.0625 0.0625 0  0.0625 0 0  0 0.0625 0  0.125 0.0625 0  0.1875 0 0  0.1875 0.0625 0  0.0625 0.125 0  0 0.1875 0  0.0625 0.1875 0  0.0625 0.375 0  0.0625 0.4375 0  0 0.4375 0  0.125 0.3125 0  0.1875 0.3125 0  0.1875 0.25 0  0.0625 0.3125 0  0 0.3125 0  0.0625 0.25 0  0.375 0.0625 0  0.4375 0.0625 0  0.4375 0 0  0.3125 0.125 0  0.3125 0.1875 0  0.25 0.1875 0  0.3125 0.0625 0  0.3125 0 0  0.25 0.0625 0  0.1875 0.1875 0  0.1875 0.125 0  0.125 0.1875 0  0.875 0.0625 0  0.9375 0 0  0.9375 0.0625 0  0.8125 0.0625 0  0.8125 0 0  0.75 0.0625 0  0.8125 0.125 0  0.8125 0.1875 0  0.75 0.1875 0  0.5625 0.375 0  0.5 0.4375 0  0.5625 0.4375 0  0.5625 0.3125 0  0.5 0.3125 0  0.5625 0.25 0  0.625 0.3125 0  0.6875 0.3125 0  0.6875 0.25 0  0.5625 0.0625 0  0.5 0.0625 0  0.5625 0 0  0.5625 0.125 0  0.5 0.1875 0  0.5625 0.1875 0  0.625 0.0625 0  0.6875 0 0  0.6875 0.0625 0  0.625 0.1875 0  0.6875 0.125 0  0.6875 0.1875 0  0.0625 0.875 0  0 0.9375 0  0.0625 0.9375 0  0.0625 0.8125 0  0 0.8125 0  0.0625 0.75 0  0.125 0.8125 0  0.1875 0.8125 0  0.1875 0.75 0  0.375 0.5625 0  0.4375 0.5 0  0.4375 0.5625 0  0.3125 0.5625 0  0.3125 0.5 0  0.25 0.5625 0  0.3125 0.625 0  0.3125 0.6875 0  0.25 0.6875 0  0.0625 0.5625 0  0.0625 0.5 0  0 0.5625 0  0.125 0.5625 0  0.1875 0.5 0  0.1875 0.5625 0  0.0625 0.625 0  0 0.6875 0  0.0625 0.6875 0  0.1875 0.625 0  0.125 0.6875 0  0.1875 0.6875 0  0.4375 0.4375 0  0.4375 0.375 0  0.4375 0.3125 0  0.375 0.4375 0  0.3125 0.4375 0  0.125 0.4375 0  0.1875 0.375 0  0.25 0.3125 0  0.1875 0.4375 0  0.25 0.4375 0  0.4375 0.125 0  0.375 0.1875 0  0.3125 0.25 0  0.4375 0.1875 0  0.4375 0.25 0  0.3125 0.3125 0  0.375 0.3125 0  0.3125 0.375 0  0.9375 0.125 0  1 0.0625 0  0.875 0.1875 0  0.8125 0.25 0  0.9375 0.1875 0  1 0.1875 0  0.9375 0.25 0  0.625 0.4375 0  0.5625 0.5 0  0.6875 0.375 0  0.75 0.3125 0  0.6875 0.4375 0  0.6875 0.5 0  0.75 0.4375 0  0.9375 0.4375 0  0.9375 0.5 0  1 0.4375 0  0.875 0.4375 0  0.8125 0.5 0  0.8125 0.4375 0  0.9375 0.375 0  1 0.3125 0  0.9375 0.3125 0  0.8125 0.3125 0  0.8125 0.375 0  0.875 0.3125 0  0.9375 0.9375 0  1 0.9375 0  0.9375 1 0  0.9375 0.875 0  1 0.8125 0  0.9375 0.8125 0  0.875 0.9375 0  0.8125 1 0  0.8125 0.9375 0  0.625 0.9375 0  0.5625 0.9375 0  0.5625 1 0  0.6875 0.875 0  0.6875 0.8125 0  0.75 0.8125 0  0.6875 0.9375 0  0.6875 1 0  0.75 0.9375 0  0.9375 0.625 0  0.9375 0.5625 0  1 0.5625 0  0.875 0.6875 0  0.8125 0.6875 0  0.8125 0.75 0  0.9375 0.6875 0  1 0.6875 0  0.9375 0.75 0  0.8125 0.8125 0  0.875 0.8125 0  0.8125 0.875 0  0.125 0.9375 0  0.0625 1 0  0.1875 0.875 0  0.25 0.8125 0  0.1875 0.9375 0  0.1875 1 0  0.25 0.9375 0  0.4375 0.625 0  0.5 0.5625 0  0.375 0.6875 0  0.3125 0.75 0  0.4375 0.6875 0  0.5 0.6875 0  0.4375 0.75 0  0.4375 0.9375 0  0.5 0.9375 0  0.4375 1 0  0.4375 0.875 0  0.5 0.8125 0  0.4375 0.8125 0  0.375 0.9375 0  0.3125 1 0  0.3125 0.9375 0  0.3125 0.8125 0  0.375 0.8125 0  0.3125 0.875 0  0.5625 0.5625 0  0.625 0.5625 0  0.6875 0.5625 0  0.5625 0.625 0  0.5625 0.6875 0  0.5625 0.875 0  0.625 0.8125 0  0.6875 0.75 0  0.5625 0.8125 0  0.5625 0.75 0  0.875 0.5625 0  0.8125 0.5625 0  0.75 0.5625 0  0.8125 0.625 0  0.75 0.6875 0  0.6875 0.625 0  0.6875 0.6875 0  0.625 0.6875 0  -0.0625 0.0625 0  -0.0625 0 0  -0.0625 0.125 0  -0.0625 0.1875 0  -0.125 0.0625 0  -0.1875 0 0  -0.1875 0.0625 0  -0.0625 0.375 0  -0.0625 0.4375 0  -0.0625 0.3125 0  -0.0625 0.25 0  -0.125 0.3125 0  -0.1875 0.3125 0  -0.1875 0.25 0  -0.375 0.0625 0  -0.4375 0.0625 0  -0.4375 0 0  -0.3125 0.125 0  -0.3125 0.1875 0  -0.25 0.1875 0  -0.3125 0.0625 0  -0.3125 0 0  -0.25 0.0625 0  -0.125 0.1875 0  -0.1875 0.1875 0  -0.1875 0.125 0  -0.0625 0.875 0  -0.0625 0.9375 0  -0.0625 0.8125 0  -0.0625 0.75 0  -0.125 0.8125 0  -0.1875 0.8125 0  -0.1875 0.75 0  -0.0625 0.5625 0  -0.0625 0.5 0  -0.0625 0.625 0  -0.0625 0.6875 0  -0.125 0.5625 0  -0.1875 0.5 0  -0.1875 0.5625 0  -0.375 0.5625 0  -0.4375 0.5 0  -0.4375 0.5625 0  -0.3125 0.5625 0  -0.3125 0.5 0  -0.25 0.5625 0  -0.3125 0.625 0  -0.3125 0.6875 0  -0.25 0.6875 0  -0.125 0.6875 0  -0.1875 0.625 0  -0.1875 0.6875 0  -0.875 0.0625 0  -0.9375 0 0  -0.9375 0.0625 0  -0.8125 0.0625 0  -0.8125 0 0  -0.75 0.0625 0  -0.8125 0.125 0  -0.8125 0.1875 0  -0.75 0.1875 0  -0.5625 0.375 0  -0.5 0.4375 0  -0.5625 0.4375 0  -0.5625 0.3125 0  -0.5 0.3125 0  -0.5625 0.25 0  -0.625 0.3125 0  -0.6875 0.3125 0  -0.6875 0.25 0  -0.5625 0.0625 0  -0.5 0.0625 0  -0.5625 0 0  -0.5625 0.125 0  -0.5 0.1875 0  -0.5625 0.1875 0  -0.625 0.0625 0  -0.6875 0 0  -0.6875 0.0625 0  -0.625 0.1875 0  -0.6875 0.125 0  -0.6875 0.1875 0  -0.125 0.4375 0  -0.1875 0.375 0  -0.25 0.3125 0  -0.1875 0.4375 0  -0.25 0.4375 0  -0.4375 0.4375 0  -0.375 0.4375 0  -0.3125 0.4375 0  -0.4375 0.375 0  -0.4375 0.3125 0  -0.4375 0.125 0  -0.375 0.1875 0  -0.3125 0.25 0  -0.4375 0.1875 0  -0.4375 0.25 0  -0.3125 0.3125 0  -0.3125 0.375 0  -0.375 0.3125 0  -0.125 0.9375 0  -0.0625 1 0  -0.1875 0.875 0  -0.25 0.8125 0  -0.1875 0.9375 0  -0.1875 1 0  -0.25 0.9375 0  -0.4375 0.625 0  -0.5 0.5625 0  -0.375 0.6875 0  -0.3125 0.75 0  -0.4375 0.6875 0  -0.5 0.6875 0  -0.4375 0.75 0  -0.4375 0.9375 0  -0.5 0.9375 0  -0.4375 1 0  -0.4375 0.875 0  -0.5 0.8125 0  -0.4375 0.8125 0  -0.375 0.9375 0  -0.3125 1 0  -0.3125 0.9375 0  -0.3125 0.8125 0  -0.375 0.8125 0  -0.3125 0.875 0  -0.9375 0.9375 0  -0.9375 1 0  -1 0.9375 0  -0.875 0.9375 0  -0.8125 1 0  -0.8125 0.9375 0  -0.9375 0.875 0  -1 0.8125 0  -0.9375 0.8125 0  -0.9375 0.625 0  -0.9375 0.5625 0  -1 0.5625 0  -0.875 0.6875 0  -0.8125 0.6875 0  -0.8125 0.75 0  -0.9375 0.6875 0  -1 0.6875 0  -0.9375 0.75 0  -0.625 0.9375 0  -0.5625 0.9375 0  -0.5625 1 0  -0.6875 0.875 0  -0.6875 0.8125 0  -0.75 0.8125 0  -0.6875 0.9375 0  -0.6875 1 0  -0.75 0.9375 0  -0.8125 0.8125 0  -0.8125 0.875 0  -0.875 0.8125 0  -0.9375 0.125 0  -1 0.0625 0  -0.875 0.1875 0  -0.8125 0.25 0  -0.9375 0.1875 0  -1 0.1875 0  -0.9375 0.25 0  -0.625 0.4375 0  -0.5625 0.5 0  -0.6875 0.375 0  -0.75 0.3125 0  -0.6875 0.4375 0  -0.6875 0.5 0  -0.75 0.4375 0  -0.9375 0.4375 0  -0.9375 0.5 0  -1 0.4375 0  -0.875 0.4375 0  -0.8125 0.5 0  -0.8125 0.4375 0  -0.9375 0.375 0  -1 0.3125 0  -0.9375 0.3125 0  -0.8125 0.3125 0  -0.8125 0.375 0  -0.875 0.3125 0  -0.5625 0.5625 0  -0.5625 0.625 0  -0.5625 0.6875 0  -0.625 0.5625 0  -0.6875 0.5625 0  -0.875 0.5625 0  -0.8125 0.625 0  -0.75 0.6875 0  -0.8125 0.5625 0  -0.75 0.5625 0  -0.5625 0.875 0  -0.5625 0.8125 0  -0.5625 0.75 0  -0.625 0.8125 0  -0.6875 0.75 0  -0.625 0.6875 0  -0.6875 0.6875 0  -0.6875 0.625 0  -0.0625 -0.0625 0  0 -0.0625 0  -0.125 -0.0625 0  -0.1875 -0.0625 0  -0.0625 -0.125 0  0 -0.1875 0  -0.0625 -0.1875 0  -0.375 -0.0625 0  -0.4375 -0.0625 0  -0.3125 -0.0625 0  -0.25 -0.0625 0  -0.3125 -0.125 0  -0.3125 -0.1875 0  -0.25 -0.1875 0  
[...]
<PointData  Vectors="u"> 
<DataArray  type="Float64"  Name="u"  NumberOfComponents="3" format="ascii">-1.0391056722084714e-01 0.0000000000000000e+00 0.0000000000000000e+00  0.0000000000000000e+00 0.0000000000000000e+00 0.0000000000000000e+00  0.0000000000000000e+00 0.0000000000000000e+00 0.0000000000000000e+00  0.0000000000000000e+00 -2.1976010504234131e+00 0.0000000000000000e+00  0.0000000000000000e+00 0.0000000000000000e+00 0.0000000000000000e+00  2.1805789647974523e+00 0.0000000000000000e+00 0.0000000000000000e+00  0.0000000000000000e+00 0.0000000000000000e+00 0.0000000000000000e+00  0.0000000000000000e+00 0.0000000000000000e+00 0.0000000000000000e+00  -3.2479058484028506e-01 -3.0312833638980374e-01 0.0000000000000000e+00  -6.2936228512009001e-02 -5.8425951398021259e-01 0.0000000000000000e+00  0.0000000000000000e+00 1.0596282093899403e-01 0.0000000000000000e+00  0.0000000000000000e+00 -1.4268336169115627e+00 0.0000000000000000e+00  -4.5611573299981600e-01 0.0000000000000000e+00 0.0000000000000000e+00  6.1260784746270824e-01 -6.2548346940794308e-01 0.0000000000000000e+00  5.6307411006238628e-01 5.1160772128916267e-02 0.0000000000000000e+00  1.8703423564176072e+00 0.0000000000000000e+00 0.0000000000000000e+00  0.0000000000000000e+00 -1.8818854541037342e+00 0.0000000000000000e+00  2.8937820329192437e-01 3.2079470030199569e-01 0.0000000000000000e+00  -1.2222999503143710e-01 0.0000000000000000e+00 0.0000000000000000e+00  0.0000000000000000e+00 4.5435466535551039e-01 0.0000000000000000e+00  1.4149240221984107e+00 0.0000000000000000e+00 0.0000000000000000e+00  -1.6030279307991552e-01 -3.6523570352041707e-02 0.0000000000000000e+00  0.0000000000000000e+00 1.1666867282848059e-01 0.0000000000000000e+00  -7.5226018803185205e-02 -1.1148174045368874e-01 0.0000000000000000e+00  -2.1196897017648175e-01 4.5188815056320910e-04 0.0000000000000000e+00  0.0000000000000000e+00 6.6800729097710648e-02 0.0000000000000000e+00  -2.5293848347393050e-01 1.1816617995863973e-02 0.0000000000000000e+00  -2.2228033006422052e-01 -4.5226775224761046e-01 0.0000000000000000e+00  -3.8215501433245466e-02 -1.2881200709973459e+00 0.0000000000000000e+00  -1.7400689105579178e-01 -1.0876076418708378e+00 0.0000000000000000e+00  -3.9909566589191242e-01 -1.4983764768561414e-01 0.0000000000000000e+00  -2.8573499787488305e-01 0.0000000000000000e+00 0.0000000000000000e+00  -3.4271144829379152e-01 -4.1364674467071799e-01 0.0000000000000000e+00  -3.9750892213706052e-01 0.0000000000000000e+00 0.0000000000000000e+00  0.0000000000000000e+00 -7.7210497866779049e-01 0.0000000000000000e+00  -2.7106681363906021e-01 -7.8463793896858747e-01 0.0000000000000000e+00  0.0000000000000000e+00 -1.9193012356107124e+00 0.0000000000000000e+00  1.6980346753292336e-01 -1.9197901523025809e-01 0.0000000000000000e+00  8.2209590411741196e-02 5.4075043688439350e-02 0.0000000000000000e+00  2.0361272739399061e-01 -6.6222227455344451e-01 0.0000000000000000e+00  1.5308070851696645e-01 -1.3395183535505675e+00 0.0000000000000000e+00  6.4374359715933960e-01 -2.1714127139797615e-01 0.0000000000000000e+00  1.2701647101944122e+00 3.2616766838247636e-02 0.0000000000000000e+00  1.3233184101568787e+00 -1.5956571385168222e-01 0.0000000000000000e+00  4.1286442364162135e-01 -1.1823656373290945e+00 0.0000000000000000e+00  0.0000000000000000e+00 -2.2042598716132704e+00 0.0000000000000000e+00  7.4919533918031378e-01 -7.5544116714061527e-01 0.0000000000000000e+00  0.0000000000000000e+00 -1.1688835914996640e+00 0.0000000000000000e+00  1.1627724102640684e+00 0.0000000000000000e+00 0.0000000000000000e+00  1.1704435790726631e+00 -4.1937885108677020e-01 0.0000000000000000e+00  2.1887911157826383e+00 0.0000000000000000e+00 0.0000000000000000e+00  1.3446400653769905e-02 1.5151100267556722e-01 0.0000000000000000e+00  -1.4193067917773380e-01 0.0000000000000000e+00 0.0000000000000000e+00  4.3325846673290519e-01 2.1482399855958778e-01 0.0000000000000000e+00  1.0710881314228462e+00 1.7005081785288592e-01 0.0000000000000000e+00  -1.5897540261685678e-02 2.0847116541935645e-01 0.0000000000000000e+00  -7.4863297290516287e-02 0.0000000000000000e+00 0.0000000000000000e+00  -1.9594235108620264e-02 2.5120273740020999e-01 0.0000000000000000e+00  7.7224163719902039e-01 2.6864952275839765e-01 0.0000000000000000e+00  1.9035789678102335e+00 0.0000000000000000e+00 0.0000000000000000e+00  4.0705785067931144e-01 3.4122064945217950e-01 0.0000000000000000e+00  7.6573066737989604e-01 0.0000000000000000e+00 0.0000000000000000e+00  0.0000000000000000e+00 3.9631158560607871e-01 0.0000000000000000e+00  1.4268958090594525e-01 3.9683426517335296e-01 0.0000000000000000e+00  0.0000000000000000e+00 2.8443595624323076e-01 0.0000000000000000e+00  -8.1851726025573057e-02 5.7940091635948925e-02 0.0000000000000000e+00  -7.8003903444547246e-02 1.6948765499580368e-02 0.0000000000000000e+00  0.0000000000000000e+00 1.0813803879903852e-01 0.0000000000000000e+00  -1.2620824724957333e-01 -6.8797075835804203e-02 0.0000000000000000e+00  -7.0621284989217437e-02 -3.1627041991030114e-01 0.0000000000000000e+00  -1.4803006112312203e-01 -2.6453090833182702e-01 0.0000000000000000e+00  -9.0525632341035084e-02 7.6491760429088937e-02 0.0000000000000000e+00  0.0000000000000000e+00 1.1530993331782026e-01 0.0000000000000000e+00  -1.0167696530738708e-01 8.2052450506211530e-02 0.0000000000000000e+00  -1.3332043685615982e-01 5.2756802820139712e-02 0.0000000000000000e+00  -1.4224892441919210e-01 2.9790314235836536e-02 0.0000000000000000e+00  0.0000000000000000e+00 3.7071861814552715e-02 0.0000000000000000e+00  -2.3351504330438091e-01 8.9643479689825081e-03 0.0000000000000000e+00  -3.1752091075482797e-01 -9.0032315673645544e-02 0.0000000000000000e+00  -2.8562361631855143e-01 -1.2781570823325694e-01 0.0000000000000000e+00  -1.2351466488208887e-01 6.9154689111287762e-02 0.0000000000000000e+00  0.0000000000000000e+00 8.9705436196263449e-02 0.0000000000000000e+00  -1.1290394325947098e-01 7.9069416107221929e-02 0.0000000000000000e+00  -1.1189362154460389e-01 -1.2033476823964948e+00 0.0000000000000000e+00  -6.5457422406928589e-02 -1.6213841349784355e+00 0.0000000000000000e+00  -2.0930559808757333e-02 -1.7179432165549926e+00 0.0000000000000000e+00  -2.1270565384877962e-01 -7.4429788681572129e-01 0.0000000000000000e+00  -2.7220283783681443e-01 -6.3876175175793681e-01 0.0000000000000000e+00  -2.7830409937103701e-01 -3.7870193957842019e-01 0.0000000000000000e+00  -1.4056484008215678e-01 -8.3608532983466632e-01 0.0000000000000000e+00  -5.2158208137528896e-02 -9.0942696320273952e-01 0.0000000000000000e+00  -1.5247387558548137e-01 -5.2199078361639883e-01 0.0000000000000000e+00  -2.4874528000180679e-01 -1.6927626673255727e-01 0.0000000000000000e+00  -2.0446781909048825e-01 -2.1482177900423979e-01 0.0000000000000000e+00  -1.8789376125093765e-01 -1.4230956596302921e-02 0.0000000000000000e+00  -2.7037574071656889e-01 8.9422210572236444e-03 0.0000000000000000e+00  -1.5025425358383832e-01 0.0000000000000000e+00 0.0000000000000000e+00  -3.4566291293049745e-01 -5.5857962826396490e-02 0.0000000000000000e+00  -3.6449432706061069e-01 -2.2655905270173574e-01 0.0000000000000000e+00  -3.7060993895454508e-01 -2.5632200221828640e-02 0.0000000000000000e+00  -3.9245142382737802e-01 0.0000000000000000e+00 0.0000000000000000e+00  -4.2951905728938566e-01 -7.3928133029667970e-02 0.0000000000000000e+00  -2.3100981699955733e-01 -2.9842405507632253e-01 0.0000000000000000e+00  0.0000000000000000e+00 -3.9817927542791087e-01 0.0000000000000000e+00  -2.4764747689073724e-01 0.0000000000000000e+00 0.0000000000000000e+00  -2.1202487006923043e-01 -5.8154914310615080e-01 0.0000000000000000e+00  0.0000000000000000e+00 -1.1167576652640663e+00 0.0000000000000000e+00  -1.9041677320422687e-01 -8.4560983017013824e-01 0.0000000000000000e+00  -3.7191084893974469e-01 -2.1074875514939251e-01 0.0000000000000000e+00  -4.6247178118289167e-01 0.0000000000000000e+00 0.0000000000000000e+00  -4.3410899474546688e-01 -1.3575422705570481e-01 0.0000000000000000e+00  -1.0395179704285835e-01 -1.4798249363280782e+00 0.0000000000000000e+00  0.0000000000000000e+00 -2.0885264576541855e+00 0.0000000000000000e+00  -2.2646439358520659e-01 -9.4648660048694178e-01 0.0000000000000000e+00  -3.2209258346458297e-01 -5.2285671493332830e-01 0.0000000000000000e+00  -1.3710146838648421e-01 -1.2996119197613432e+00 0.0000000000000000e+00  0.0000000000000000e+00 -1.6964812331375889e+00 0.0000000000000000e+00  -1.6566869974286519e-01 -1.0864908301207845e+00 0.0000000000000000e+00  -3.6470708705133403e-01 -3.9906433321954804e-01 0.0000000000000000e+00  -3.0939461329646856e-01 -6.0592580941505858e-01 0.0000000000000000e+00  -4.0169690103009142e-01 -2.6940685722730301e-01 0.0000000000000000e+00  -1.4710418681169487e-02 -1.7613756741457980e-02 0.0000000000000000e+00  -5.7790347827600390e-02 4.4676819004782917e-02 0.0000000000000000e+00  1.8397421330080658e-02 -1.5612996759334088e-01 0.0000000000000000e+00  4.1026752203018317e-02 -3.6436661994923158e-01 0.0000000000000000e+00  1.2923813626142119e-01 -4.1805392481300406e-02 0.0000000000000000e+00  2.9206047889806563e-01 5.4990176202798551e-02 0.0000000000000000e+00  3.4135352122529455e-01 -5.8497020130606384e-02 0.0000000000000000e+00  4.9647764141823911e-02 -1.3361003701556442e+00 0.0000000000000000e+00  3.0940772155528699e-02 -1.7631747852034292e+00 0.0000000000000000e+00  5.7060918278480879e-02 -9.5881981951607997e-01 0.0000000000000000e+00  5.3978446763978963e-02 -6.3373714091864219e-01 0.0000000000000000e+00  1.9008004845150675e-01 -9.7642082942873620e-01 0.0000000000000000e+00  3.4948007692835015e-01 -9.5454844760848756e-01 0.0000000000000000e+00  3.8939072721787754e-01 -6.6189067633065490e-01 0.0000000000000000e+00  1.3186402078290584e+00 -5.5816795757302071e-02 0.0000000000000000e+00  1.7463753744458350e+00 -3.3991449428524272e-02 0.0000000000000000e+00  1.7006981552320315e+00 1.8155602470690979e-02 0.0000000000000000e+00  9.5928532095993824e-01 -1.9996481310723990e-01 0.0000000000000000e+00  9.3957526115467338e-01 -3.5940364345722720e-01 0.0000000000000000e+00  6.4603481642746807e-01 -4.0273529826088333e-01 0.0000000000000000e+00  9.4019819538050753e-01 -6.6516350234040594e-02 0.0000000000000000e+00  8.9020941772982842e-01 4.3609788048201821e-02 0.0000000000000000e+00  6.1333979852476517e-01 -6.7073518136815835e-02 0.0000000000000000e+00  1.9595480671900492e-01 -3.9965481862736735e-01 0.0000000000000000e+00  3.9766967910217371e-01 -4.1449719316985956e-01 0.0000000000000000e+00  3.7943308231901318e-01 -2.1353587690368725e-01 0.0000000000000000e+00  9.0453167853503061e-02 -1.7493645424265778e+00 0.0000000000000000e+00  0.0000000000000000e+00 -2.2383562490649198e+00 0.0000000000000000e+00  2.7373205024657954e-01 -1.2908448985168957e+00 0.0000000000000000e+00  5.3681957317811813e-01 -8.8556667376516240e-01 0.0000000000000000e+00  1.5841414039367491e-01 -1.6691491159056346e+00 0.0000000000000000e+00  0.0000000000000000e+00 -2.0879331119923998e+00 0.0000000000000000e+00  2.3553363432015526e-01 -1.5148723662384160e+00 0.0000000000000000e+00  5.2590627577542504e-01 -5.2901818893701058e-01 0.0000000000000000e+00  6.4233949659463752e-01 0.0000000000000000e+00 0.0000000000000000e+00  0.0000000000000000e+00 -6.4543499788987024e-01 0.0000000000000000e+00  9.4653662316570297e-01 -4.2228483420594126e-01 0.0000000000000000e+00  1.5693026970188668e+00 0.0000000000000000e+00 0.0000000000000000e+00  1.2696661739791497e+00 -3.2555589610708391e-01 0.0000000000000000e+00  4.1912947657497340e-01 -9.5268384162267228e-01 0.0000000000000000e+00  0.0000000000000000e+00 -1.5782623696973357e+00 0.0000000000000000e+00  3.2234255730559130e-01 -1.2786883382322323e+00 0.0000000000000000e+00  1.7337143609070202e+00 -9.3668076295188099e-02 0.0000000000000000e+00  2.2217711441978230e+00 0.0000000000000000e+00 0.0000000000000000e+00  1.2765419736046506e+00 -2.8030743854851137e-01 0.0000000000000000e+00  8.7320998289427287e-01 -5.4655126771264839e-01 0.0000000000000000e+00  1.6552584694211692e+00 -1.6169033754574111e-01 0.0000000000000000e+00  2.0741814740028044e+00 0.0000000000000000e+00 0.0000000000000000e+00  1.5032319204233138e+00 -2.3879753079476110e-01 0.0000000000000000e+00  7.5274139201483581e-01 -7.6219686210561022e-01 0.0000000000000000e+00  9.9719766517174413e-01 -5.7763884478736416e-01 0.0000000000000000e+00  5.7125600625128869e-01 -1.0063957937901395e+00 0.0000000000000000e+00  -8.8693102276845875e-02 6.7687366651196998e-02 0.0000000000000000e+00  -1.3721729138582328e-01 0.0000000000000000e+00 0.0000000000000000e+00  4.1959453050014875e-02 1.1183090163660697e-01 0.0000000000000000e+00  2.4127617701484838e-01 1.3585270830258769e-01 0.0000000000000000e+00  -1.0134246974620734e-01 8.4086999233547330e-02 0.0000000000000000e+00  -1.3591125417659219e-01 0.0000000000000000e+00 0.0000000000000000e+00  -1.0230501769188478e-01 9.8236611061009990e-02 0.0000000000000000e+00  1.1857186283337668e+00 1.0707161709006169e-01 0.0000000000000000e+00  1.6044404695015619e+00 6.3049068902886474e-02 0.0000000000000000e+00  8.1725553546982255e-01 1.3331411218850533e-01 0.0000000000000000e+00  5.0134295467604084e-01 1.4276600630267991e-01 0.0000000000000000e+00  7.2675648521898928e-01 2.0689547760428667e-01 0.0000000000000000e+00  6.2323032563685898e-01 2.6773064689714221e-01 0.0000000000000000e+00  3.6207941051996262e-01 2.7280896650119674e-01 0.0000000000000000e+00  -6.0743386989134715e-02 1.3235396019241091e-01 0.0000000000000000e+00  -3.3783716982516344e-02 1.4147673293669177e-01 0.0000000000000000e+00  -4.1100215134684794e-02 0.0000000000000000e+00 0.0000000000000000e+00  -2.0591259918998937e-02 2.3113705597622233e-01 0.0000000000000000e+00  7.8918454053784240e-02 3.1461110329340558e-01 0.0000000000000000e+00  1.1319793842519918e-01 2.8152106920171910e-01 0.0000000000000000e+00  -8.1146227417961000e-02 1.2216267084895219e-01 0.0000000000000000e+00  -1.0182974697594702e-01 0.0000000000000000e+00 0.0000000000000000e+00  -9.5117401619747230e-02 1.1083955307516448e-01 0.0000000000000000e+00  1.9390890288011736e-01 1.9581388042454320e-01 0.0000000000000000e+00  1.5134965142023879e-01 2.4279646333068119e-01 0.0000000000000000e+00  -5.0208360824304209e-03 1.8246422890832398e-01 0.0000000000000000e+00  1.4639050384572430e+00 1.0195200008827797e-01 0.0000000000000000e+00  2.0718053067086388e+00 0.0000000000000000e+00 0.0000000000000000e+00  9.3175491619666961e-01 2.2333882963780632e-01 0.0000000000000000e+00  5.0987434013915844e-01 3.1871673925002991e-01 0.0000000000000000e+00  1.2853636569531655e+00 1.3549934473237960e-01 0.0000000000000000e+00  1.6823946743189291e+00 0.0000000000000000e+00 0.0000000000000000e+00  1.0744579845248408e+00 1.6441270669541583e-01 0.0000000000000000e+00  2.9515873791745090e-01 2.3033194006864730e-01 0.0000000000000000e+00  0.0000000000000000e+00 2.4700695749334659e-01 0.0000000000000000e+00  3.9494086565069375e-01 0.0000000000000000e+00 0.0000000000000000e+00  2.0740699960181397e-01 3.7064108285284880e-01 0.0000000000000000e+00  0.0000000000000000e+00 4.6087947747327312e-01 0.0000000000000000e+00  1.3229417348195541e-01 4.3241460814164334e-01 0.0000000000000000e+00  5.7511955057181463e-01 2.1123378436369836e-01 0.0000000000000000e+00  1.1074563463203742e+00 0.0000000000000000e+00 0.0000000000000000e+00  8.3622129526738975e-01 1.8943339955018323e-01 0.0000000000000000e+00  -1.2840117635747703e-02 2.6897337215265388e-01 0.0000000000000000e+00  0.0000000000000000e+00 1.4954146917097530e-01 0.0000000000000000e+00  4.8378664284120201e-02 3.4348272752387815e-01 0.0000000000000000e+00  2.1600288066835016e-01 3.6155165157947960e-01 0.0000000000000000e+00  2.1871646497353514e-02 3.6882230237056751e-01 0.0000000000000000e+00  0.0000000000000000e+00 3.9078747098991196e-01 0.0000000000000000e+00  7.0321774309425017e-02 4.2763665720032673e-01 0.0000000000000000e+00  3.8901976304248898e-01 3.6214739148982095e-01 0.0000000000000000e+00  2.6256939563164955e-01 3.9968786350439178e-01 0.0000000000000000e+00  5.9628313960897983e-01 3.0752421527785484e-01 0.0000000000000000e+00  -5.4556116767452104e-02 7.6483426183586389e-02 0.0000000000000000e+00  0.0000000000000000e+00 1.0153581230777219e-01 0.0000000000000000e+00  -8.2675942894679735e-02 3.9596570336966917e-02 0.0000000000000000e+00  -4.6801050669527666e-02 9.2978896721979509e-02 0.0000000000000000e+00  0.0000000000000000e+00 1.1371241658559181e-01 0.0000000000000000e+00  -4.5727289773612977e-02 1.0171736919562971e-01 0.0000000000000000e+00  -7.9868435200419835e-02 4.0758409519106385e-02 0.0000000000000000e+00  -7.6554717502097372e-02 -3.6215325115189254e-02 0.0000000000000000e+00  -9.4646447815168483e-02 -1.4563754769143429e-02 0.0000000000000000e+00  -1.1268553776741139e-01 -2.9043850933112453e-01 0.0000000000000000e+00  -1.1289290141262573e-01 -4.1498384771392210e-01 0.0000000000000000e+00  -6.7165571441560518e-02 -4.4281984545230640e-01 0.0000000000000000e+00  -1.3946021696619387e-01 -1.5854624869591782e-01 0.0000000000000000e+00  -1.6423274448692254e-01 -1.3728323275099907e-01 0.0000000000000000e+00  -1.4443291510944853e-01 -5.1262340924065196e-02 0.0000000000000000e+00  -1.0984336496669689e-01 -1.8149386477870708e-01 0.0000000000000000e+00  -7.3300295535237661e-02 -2.0543796203353459e-01 0.0000000000000000e+00  -1.0406041698507340e-01 -8.9120691845810160e-02 0.0000000000000000e+00  -5.1919629345179692e-02 1.0677894983525628e-01 0.0000000000000000e+00  -5.4635501016900012e-02 1.0384495190629060e-01 0.0000000000000000e+00  0.0000000000000000e+00 1.1154270110468517e-01 0.0000000000000000e+00  -9.6004819429891197e-02 8.0518222316705704e-02 0.0000000000000000e+00  -1.3818029981601632e-01 3.6281883654744218e-02 0.0000000000000000e+00  -1.2851983988304397e-01 2.8591000802692664e-02 0.0000000000000000e+00  -4.9315050796393409e-02 1.0767406468949380e-01 0.0000000000000000e+00  0.0000000000000000e+00 1.1710047591613316e-01 0.0000000000000000e+00  -4.7061000599154253e-02 1.0618982662024316e-01 0.0000000000000000e+00  -1.1840350415388912e-01 1.7949293090774948e-02 0.0000000000000000e+00  -8.5606125646480097e-02 6.9322319686664344e-02 0.0000000000000000e+00  -1.0749434195099024e-01 3.7217873923485194e-03 0.0000000000000000e+00  -7.2016181924239822e-02 3.5110942483421628e-02 0.0000000000000000e+00  0.0000000000000000e+00 1.9512415250884964e-02 0.0000000000000000e+00  -7.4108937902558167e-02 1.8457336986339806e-02 0.0000000000000000e+00  -6.9822844978697771e-02 4.9991233227154049e-02 0.0000000000000000e+00  0.0000000000000000e+00 5.2811461083946333e-02 0.0000000000000000e+00  -6.7523164638759792e-02 6.3143639972416093e-02 0.0000000000000000e+00  -1.3789782907880591e-01 4.2110735956210260e-02 0.0000000000000000e+00  -2.0249345640294092e-01 2.9154932152345308e-02 0.0000000000000000e+00  -1.9568331819748186e-01 3.5643779428158565e-02 0.0000000000000000e+00  -3.0209872381581948e-01 -1.0847886236646630e-01 0.0000000000000000e+00  -3.1000842746984331e-01 -2.0975960374028607e-01 0.0000000000000000e+00  -3.2877626629750606e-01 -1.8150988811059884e-01 0.0000000000000000e+00  -2.6644510072234195e-01 -4.6082825351607293e-02 0.0000000000000000e+00  -2.5259062153287593e-01 -5.7632989924087455e-02 0.0000000000000000e+00  -2.2302490711312833e-01 5.4300032347045545e-03 0.0000000000000000e+00  -2.7949123008904686e-01 -3.5754119694869559e-02 0.0000000000000000e+00  -2.9181095715966693e-01 -2.6623114865641572e-02 0.0000000000000000e+00  -2.4347837222728455e-01 1.1092493284622284e-02 0.0000000000000000e+00  -6.0023373849532907e-02 9.2577742340529762e-02 0.0000000000000000e+00  -5.7354178190320647e-02 9.9072866233407761e-02 0.0000000000000000e+00  0.0000000000000000e+00 9.8667751395599662e-02 0.0000000000000000e+00  -1.1830317292415231e-01 7.4932928181559638e-02 0.0000000000000000e+00  -1.6495390856812861e-01 4.6116288597207060e-02 0.0000000000000000e+00  -1.7316140708343880e-01 4.5833223462202186e-02 0.0000000000000000e+00  -6.2616527444210285e-02 8.4417271306471461e-02 0.0000000000000000e+00  0.0000000000000000e+00 7.90877812034058