<?xml version="1.0"?>
<VTKFile type="UnstructuredGrid"  version="0.1"  >
<UnstructuredGrid>
<Piece  NumberOfPoints="16641" NumberOfCells="32768">
<Points>
<DataArray  type="Float32"  NumberOfComponents="3"  format="ascii">0 0 0  0.0078125 0 0  0.015625 0 0  0.0234375 0 0  0.03125 0 0  0.0390625 0 0  0.046875 0 0  0.0546875 0 0  0.0625 0 0  0.0703125 0 0  0.078125 0 0  0.0859375 0 0  0.09375 0 0  0.101562 0 0  0.109375 0 0  0.117188 0 0  0.125 0 0  0.132812 0 0  0.140625 0 0  0.148438 0 0  0.15625 0 0  0.164062 0 0  0.171875 0 0  0.179688 0 0  0.1875 0 0  0.195312 0 0  0.203125 0 0  0.210938 0 0  0.21875 0 0  0.226562 0 0  0.234375 0 0  0.242188 0 0  0.25 0 0  0.257812 0 0  0.265625 0 0  0.273438 0 0  0.28125 0 0  0.289062 0 0  0.296875 0 0  0.304688 0 0  0.3125 0 0  0.320312 0 0  0.328125 0 0  0.335938 0 0  0.34375 0 0  0.351562 0 0  0.359375 0 0  0.367188 0 0  0.375 0 0  0.382812 0 0  0.390625 0 0  0.398438 0 0  0.40625 0 0  0.414062 0 0  0.421875 0 0  0.429688 0 0  0.4375 0 0  0.445312 0 0  0.453125 0 0  0.460938 0 0  0.46875 0 0  0.476562 0 0  0.484375 0 0  0.492188 0 0  0.5 0 0  0.507812 0 0  0.515625 0 0  0.523438 0 0  0.53125 0 0  0.539062 0 0  0.546875 0 0  0.554688 0 0  0.5625 0 0  0.570312 0 0  0.578125 0 0  0.585938 0 0  0.59375 0 0  0.601562 0 0  0.609375 0 0  0.617188 0 0  0.625 0 0  0.632812 0 0  0.640625 0 0  0.648438 0 0  0.65625 0 0  0.664062 0 0  0.671875 0 0  0.679688 0 0  0.6875 0 0  0.695312 0 0  0.703125 0 0  0.710938 0 0  0.71875 0 0  0.726562 0 0  0.734375 0 0  0.742188 0 0  0.75 0 0  0.757812 0 0  0.765625 0 0  0.773438 0 0  0.78125 0 0  0.789062 0 0  0.796875 0 0  0.804688 0 0  0.8125 0 0  0.820312 0 0  0.828125 0 0  0.835938 0 0  0.84375 0 0  0.851562 0 0  0.859375 0 0  0.867188 0 0  0.875 0 0  0.882812 0 0  0.890625 0 0  0.898438 0 0  0.90625 0 0  0.914062 0 0  0.921875 0 0  0.929688 0 0  0.9375 0 0  0.945312 0 0  0.953125 0 0  0.960938 0 0  0.96875 0 0  0.976562 0 0  0.984375 0 0  0.992188 0 0  1 0 0  0 0.0078125 0  0.0078125 0.0078125 0  0.015625 0.0078125 0  0.0234375 0.0078125 0  0.03125 0.0078125 0  0.0390625 0.0078125 0  0.046875 0.0078125 0  0.0546875 0.0078125 0  0.0625 0.0078125 0  0.0703125 0.0078125 0  0.078125 0.0078125 0  0.0859375 0.0078125 0  0.09375 0.0078125 0  0.101562 0.0078125 0  0.109375 0.0078125 0  0.117188 0.0078125 0  0.125 0.0078125 0  0.132812 0.0078125 0  0.140625 0.0078125 0  0.148438 0.0078125 0  0.15625 0.0078125 0  0.164062 0.0078125 0  0.171875 0.0078125 0  0.179688 0.0078125 0  0.1875 0.0078125 0  0.195312 0.0078125 0  0.203125 0.0078125 0  0.210938 0.0078125 0  0.21875 0.0078125 0  0.226562 0.0078125 0  0.234375 0.0078125 0  0.242188 0.0078125 0  0.25 0.0078125 0  0.257812 0.0078125 0  0.265625 0.0078125 0  0.273438 0.0078125 0  0.28125 0.0078125 0  0.289062 0.0078125 0  0.296875 0.0078125 0  0.304688 0.0078125 0  0.3125 0.0078125 0  0.320312 0.0078125 0  0.328125 0.0078125 0  0.335938 0.0078125 0  0.34375 0.0078125 0  0.351562 0.0078125 0  0.359375 0.0078125 0  0.367188 0.0078125 0  0.375 0.0078125 0  0.382812 0.0078125 0  0.390625 0.0078125 0  0.398438 0.0078125 0  0.40625 0.0078125 0  0.414062 0.0078125 0  0.421875 0.0078125 0  0.429688 0.0078125 0  0.4375 0.0078125 0  0.445312 0.0078125 0  0.453125 0.0078125 0  0.460938 0.0078125 0  0.46875 0.0078125 0  0.476562 0.0078125 0  0.484375 0.0078125 0  0.492188 0.0078125 0  0.5 0.0078125 0  0.507812 0.0078125 0  0.515625 0.0078125 0  0.523438 0.0078125 0  0.53125 0.0078125 0  0.539062 0.0078125 0  0.546875 0.0078125 0  0.554688 0.0078125 0  0.5625 0.0078125 0  0.570312 0.0078125 0  0.578125 0.0078125 0  0.585938 0.0078125 0  0.59375 0.0078125 0  0.601562 0.0078125 0  0.609375 0.0078125 0  0.617188 0.0078125 0  0.625 0.0078125 0  0.632812 0.0078125 0  0.640625 0.0078125 0  0.648438 0.0078125 0  0.65625 0.0078125 0  0.664062 0.0078125 0  0.671875 0.0078125 0  0.679688 0.0078125 0  0.6875 0.0078125 0  0.695312 0.0078125 0  0.703125 0.0078125 0  0.710938 0.0078125 0  0.71875 0.0078125 0  0.726562 0.0078125 0  0.734375 0.0078125 0  0.742188 0.0078125 0  0.75 0.0078125 0  0.757812 0.0078125 0  0.765625 0.0078125 0  0.773438 0.0078125 0  0.78125 0.0078125 0  0.789062 0.0078125 0  0.796875 0.0078125 0  0.804688 0.0078125 0  0.8125 0.0078125 0  0.820312 0.0078125 0  0.828125 0.0078125 0  0.835938 0.0078125 0  0.84375 0.0078125 0  0.851562 0.0078125 0  0.859375 0.0078125 0  0.867188 0.0078125 0  0.875 0.0078125 0  0.882812 0.0078125 0  0.890625 0.0078125 0  0.898438 0.0078125 0  0.90625 0.0078125 0  0.914062 0.0078125 0  0.921875 0.0078125 0  0.929688 0.0078125 0  0.9375 0.0078125 0  0.945312 0.0078125 0  0.953125 0.0078125 0  0.960938 0.0078125 0  0.96875 0.0078125 0  0.976562 0.0078125 0  0.984375 0.0078125 0  0.992188 0.0078125 0  1 0.0078125 0  0 0.015625 0  0.0078125 0.015625 0  0.015625 0.015625 0  0.0234375 0.015625 0  0.03125 0.015625 0  0.0390625 0.015625 0  0.046875 0.015625 0  0.0546875 0.015625 0  0.0625 0.015625 0  0.0703125 0.015625 0  0.078125 0.015625 0  0.0859375 0.015625 0  0.09375 0.015625 0  0.101562 0.015625 0  0.109375 0.015625 0  0.117188 0.015625 0  0.125 0.015625 0  0.132812 0.015625 0  0.140625 0.015625 0  0.148438 0.015625 0  0.15625 0.015625 0  0.164062 0.015625 0  0.171875 0.015625 0  0.179688 0.015625 0  0.1875 0.015625 0  0.195312 0.015625 0  0.203125 0.015625 0  0.210938 0.015625 0  0.21875 0.015625 0  0.226562 0.015625 0  0.234375 0.015625 0  0.242188 0.015625 0  0.25 0.015625 0  0.257812 0.015625 0  0.265625 0.015625 0  0.273438 0.015625 0  0.28125 0.015625 0  0.289062 0.015625 0  0.296875 0.015625 0  0.304688 0.015625 0  0.3125 0.015625 0  0.320312 0.015625 0  0.328125 0.015625 0  0.335938 0.015625 0  0.34375 0.015625 0  0.351562 0.015625 0  0.359375 0.015625 0  0.367188 0.015625 0  0.375 0.015625 0  0.382812 0.015625 0  0.390625 0.015625 0  0.398438 0.015625 0  0.40625 0.015625 0  0.414062 0.015625 0  0.421875 0.015625 0  0.429688 0.015625 0  0.4375 0.015625 0  0.445312 0.015625 0  0.453125 0.015625 0  0.460938 0.015625 0  0.46875 0.015625 0  0.476562 0.015625 0  0.484375 0.015625 0  0.492188 0.015625 0  0.5 0.015625 0  0.507812 0.015625 0  0.515625 0.015625 0  0.523438 0.015625 0  0.53125 0.015625 0  0.539062 0.015625 0  0.546875 0.015625 0  0.554688 0.015625 0  0.5625 0.015625 0  0.570312 0.015625 0  0.578125 0.015625 0  0.585938 0.015625 0  0.59375 0.015625 0  0.601562 0.015625 0  0.609375 0.015625 0  0.617188 0.015625 0  0.625 0.015625 0  0.632812 0.015625 0  0.640625 0.015625 0  0.648438 0.015625 0  0.65625 0.015625 0  0.664062 0.015625 0  0.671875 0.015625 0  0.679688 0.015625 0  0.6875 0.015625 0  0.695312 0.015625 0  0.703125 0.015625 0  0.710938 0.015625 0  0.71875 0.015625 0  0.726562 0.015625 0  0.734375 0.015625 0  0.742188 0.015625 0  0.75 0.015625 0  0.757812 0.015625 0  0.765625 0.015625 0  0.773438 0.015625 0  0.78125 0.015625 0  0.789062 0.015625 0  0.796875 0.015625 0  0.804688 0.015625 0  0.8125 0.015625 0  0.820312 0.015625 0  0.828125 0.015625 0  0.835938 0.015625 0  0.84375 0.015625 0  0.851562 0.015625 0  0.859375 0.015625 0  0.867188 0.015625 0  0.875 0.015625 0  0.882812 0.015625 0  0.890625 0.015625 0  0.898438 0.015625 0  0.90625 0.015625 0  0.914062 0.015625 0  0.921875 0.015625 0  0.929688 0.015625 0  0.9375 0.015625 0  0.945312 0.015625 0  0.953125 0.015625 0  0.960938 0.015625 0  0.96875 0.015625 0  0.976562 0.015625 0  0.984375 0.015625 0  0.992188 0.015625 0  1 0.015625 0  0 0.0234375 0  0.0078125 0.0234375 0  0.015625 0.0234375 0  0.0234375 0.0234375 0  0.03125 0.0234375 0  0.0390625 0.0234375 0  0.046875 0.0234375 0  0.0546875 0.0234375 0  0.0625 0.0234375 0  0.0703125 0.0234375 0  0.078125 0.0234375 0  0.0859375 0.0234375 0  0.09375 0.0234375 0  0.101562 0.0234375 0  0.109375 0.0234375 0  0.117188 0.0234375 0  0.125 0.0234375 0  0.132812 0.0234375 0  0.140625 0.0234375 0  0.148438 0.0234375 0  0.15625 0.0234375 0  0.164062 0.0234375 0  0.171875 0.0234375 0  0.179688 0.0234375 0  0.1875 0.0234375 0  0.195312 0.0234375 0  0.203125 0.0234375 0  0.210938 0.0234375 0  0.21875 0.0234375 0  0.226562 0.0234375 0  0.234375 0.0234375 0  0.242188 0.0234375 0  0.25 0.0234375 0  0.257812 0.0234375 0  0.265625 0.0234375 0  0.273438 0.0234375 0  0.28125 0.0234375 0  0.289062 0.0234375 0  0.296875 0.0234375 0  0.304688 0.0234375 0  0.3125 0.0234375 0  0.320312 0.0234375 0  0.328125 0.0234375 0  0.335938 0.0234375 0  0.34375 0.0234375 0  0.351562 0.0234375 0  0.359375 0.0234375 0  0.367188 0.0234375 0  0.375 0.0234375 0  0.382812 0.0234375 0  0.390625 0.0234375 0  0.398438 0.0234375 0  0.40625 0.0234375 0  0.414062 0.0234375 0  0.421875 0.0234375 0  0.429688 0.0234375 0  0.4375 0.0234375 0  0.445312 0.0234375 0  0.453125 0.0234375 0  0.460938 0.0234375 0  0.46875 0.0234375 0  0.476562 0.0234375 0  0.484375 0.0234375 0  0.492188 0.0234375 0  0.5 0.0234375 0  0.507812 0.0234375 0  0.515625 0.0234375 0  0.523438 0.0234375 0  0.53125 0.0234375 0  0.539062 0.0234375 0  0.546875 0.0234375 0  0.554688 0.0234375 0  0.5625 0.0234375 0  0.570312 0.0234375 0  0.578125 0.0234375 0  0.585938 0.0234375 0  0.59375 0.0234375 0  0.601562 0.0234375 0  0.609375 0.0234375 0  0.617188 0.0234375 0  0.625 0.0234375 0  0.632812 0.0234375 0  0.640625 0.0234375 0  0.648438 0.0234375 0  0.65625 0.0234375 0  0.664062 0.0234375 0  0.671875 0.0234375 0  0.679688 0.0234375 0  0.6875 0.0234375 0  0.695312 0.0234375 0  0.703125 0.0234375 0  0.710938 0.0234375 0  0.71875 0.0234375 0  0.726562 0.0234375 0  0.734375 0.0234375 0  0.742188 0.0234375 0  0.75 0.0234375 0  0.757812 0.0234375 0  0.765625 0.0234375 0  0.773438 0.0234375 0  0.78125 0.0234375 0  0.789062 0.0234375 0  0.796875 0.0234375 0  0.804688 0.0234375 0  0.8125 0.0234375 0  0.820312 0.0234375 0  0.828125 0.0234375 0  0.835938 0.0234375 0  0.84375 0.0234375 0  0.851562 0.0234375 0  0.859375 0.0234375 0  0.867188 0.0234375 0  0.875 0.0234375 0  0.882812 0.0234375 0  0.890625 0.0234375 0  0.898438 0.0234375 0  0.90625 0.0234375 0  0.914062 0.0234375 0  0.921875 0.0234375 0  0.929688 0.0234375 0  0.9375 0.0234375 0  0.945312 0.0234
[...]
<PointData  Vectors="u"> 
<DataArray  type="Float32"  Name="u"  NumberOfComponents="3" format="ascii">0.000000e+00 0.000000e+00 0.000000e+00  0.000000e+00 2.473746e-02 0.000000e+00  0.000000e+00 4.984725e-02 0.000000e+00  0.000000e+00 7.531877e-02 0.000000e+00  0.000000e+00 1.011408e-01 0.000000e+00  0.000000e+00 1.273017e-01 0.000000e+00  0.000000e+00 1.537893e-01 0.000000e+00  0.000000e+00 1.805911e-01 0.000000e+00  0.000000e+00 2.076940e-01 0.000000e+00  0.000000e+00 2.350849e-01 0.000000e+00  0.000000e+00 2.627498e-01 0.000000e+00  0.000000e+00 2.906746e-01 0.000000e+00  0.000000e+00 3.188447e-01 0.000000e+00  0.000000e+00 3.472452e-01 0.000000e+00  0.000000e+00 3.758607e-01 0.000000e+00  0.000000e+00 4.046755e-01 0.000000e+00  0.000000e+00 4.336734e-01 0.000000e+00  0.000000e+00 4.628380e-01 0.000000e+00  0.000000e+00 4.921523e-01 0.000000e+00  0.000000e+00 5.215992e-01 0.000000e+00  0.000000e+00 5.511610e-01 0.000000e+00  0.000000e+00 5.808198e-01 0.000000e+00  0.000000e+00 6.105572e-01 0.000000e+00  0.000000e+00 6.403547e-01 0.000000e+00  0.000000e+00 6.701933e-01 0.000000e+00  0.000000e+00 7.000536e-01 0.000000e+00  0.000000e+00 7.299161e-01 0.000000e+00  0.000000e+00 7.597608e-01 0.000000e+00  0.000000e+00 7.895674e-01 0.000000e+00  0.000000e+00 8.193156e-01 0.000000e+00  0.000000e+00 8.489843e-01 0.000000e+00  0.000000e+00 8.785526e-01 0.000000e+00  0.000000e+00 9.079991e-01 0.000000e+00  0.000000e+00 9.373023e-01 0.000000e+00  0.000000e+00 9.664401e-01 0.000000e+00  0.000000e+00 9.953907e-01 0.000000e+00  0.000000e+00 1.024132e+00 0.000000e+00  0.000000e+00 1.052640e+00 0.000000e+00  0.000000e+00 1.080894e+00 0.000000e+00  0.000000e+00 1.108870e+00 0.000000e+00  0.000000e+00 1.136546e+00 0.000000e+00  0.000000e+00 1.163897e+00 0.000000e+00  0.000000e+00 1.190901e+00 0.000000e+00  0.000000e+00 1.217533e+00 0.000000e+00  0.000000e+00 1.243771e+00 0.000000e+00  0.000000e+00 1.269591e+00 0.000000e+00  0.000000e+00 1.294968e+00 0.000000e+00  0.000000e+00 1.319879e+00 0.000000e+00  0.000000e+00 1.344300e+00 0.000000e+00  0.000000e+00 1.368207e+00 0.000000e+00  0.000000e+00 1.391576e+00 0.000000e+00  0.000000e+00 1.414382e+00 0.000000e+00  0.000000e+00 1.436601e+00 0.000000e+00  0.000000e+00 1.458210e+00 0.000000e+00  0.000000e+00 1.479184e+00 0.000000e+00  0.000000e+00 1.499500e+00 0.000000e+00  0.000000e+00 1.519133e+00 0.000000e+00  0.000000e+00 1.538059e+00 0.000000e+00  0.000000e+00 1.556255e+00 0.000000e+00  0.000000e+00 1.573697e+00 0.000000e+00  0.000000e+00 1.590362e+00 0.000000e+00  0.000000e+00 1.606226e+00 0.000000e+00  0.000000e+00 1.621265e+00 0.000000e+00  0.000000e+00 1.635458e+00 0.000000e+00  0.000000e+00 1.648780e+00 0.000000e+00  0.000000e+00 1.661210e+00 0.000000e+00  0.000000e+00 1.672725e+00 0.000000e+00  0.000000e+00 1.683303e+00 0.000000e+00  0.000000e+00 1.692922e+00 0.000000e+00  0.000000e+00 1.701561e+00 0.000000e+00  0.000000e+00 1.709198e+00 0.000000e+00  0.000000e+00 1.715812e+00 0.000000e+00  0.000000e+00 1.721384e+00 0.000000e+00  0.000000e+00 1.725892e+00 0.000000e+00  0.000000e+00 1.729318e+00 0.000000e+00  0.000000e+00 1.731641e+00 0.000000e+00  0.000000e+00 1.732843e+00 0.000000e+00  0.000000e+00 1.732905e+00 0.000000e+00  0.000000e+00 1.731810e+00 0.000000e+00  0.000000e+00 1.729539e+00 0.000000e+00  0.000000e+00 1.726077e+00 0.000000e+00  0.000000e+00 1.721406e+00 0.000000e+00  0.000000e+00 1.715510e+00 0.000000e+00  0.000000e+00 1.708375e+00 0.000000e+00  0.000000e+00 1.699985e+00 0.000000e+00  0.000000e+00 1.690326e+00 0.000000e+00  0.000000e+00 1.679385e+00 0.000000e+00  0.000000e+00 1.667149e+00 0.000000e+00  0.000000e+00 1.653606e+00 0.000000e+00  0.000000e+00 1.638744e+00 0.000000e+00  0.000000e+00 1.622552e+00 0.000000e+00  0.000000e+00 1.605020e+00 0.000000e+00  0.000000e+00 1.586140e+00 0.000000e+00  0.000000e+00 1.565901e+00 0.000000e+00  0.000000e+00 1.544297e+00 0.000000e+00  0.000000e+00 1.521320e+00 0.000000e+00  0.000000e+00 1.496964e+00 0.000000e+00  0.000000e+00 1.471224e+00 0.000000e+00  0.000000e+00 1.444094e+00 0.000000e+00  0.000000e+00 1.415572e+00 0.000000e+00  0.000000e+00 1.385655e+00 0.000000e+00  0.000000e+00 1.354340e+00 0.000000e+00  0.000000e+00 1.321626e+00 0.000000e+00  0.000000e+00 1.287514e+00 0.000000e+00  0.000000e+00 1.252003e+00 0.000000e+00  0.000000e+00 1.215097e+00 0.000000e+00  0.000000e+00 1.176796e+00 0.000000e+00  0.000000e+00 1.137106e+00 0.000000e+00  0.000000e+00 1.096031e+00 0.000000e+00  0.000000e+00 1.053576e+00 0.000000e+00  0.000000e+00 1.009748e+00 0.000000e+00  0.000000e+00 9.645552e-01 0.000000e+00  0.000000e+00 9.180057e-01 0.000000e+00  0.000000e+00 8.701093e-01 0.000000e+00  0.000000e+00 8.208771e-01 0.000000e+00  0.000000e+00 7.703208e-01 0.000000e+00  0.000000e+00 7.184535e-01 0.000000e+00  0.000000e+00 6.652891e-01 0.000000e+00  0.000000e+00 6.108428e-01 0.000000e+00  0.000000e+00 5.551309e-01 0.000000e+00  0.000000e+00 4.981706e-01 0.000000e+00  0.000000e+00 4.399804e-01 0.000000e+00  0.000000e+00 3.805798e-01 0.000000e+00  0.000000e+00 3.199897e-01 0.000000e+00  0.000000e+00 2.582317e-01 0.000000e+00  0.000000e+00 1.953289e-01 0.000000e+00  0.000000e+00 1.313054e-01 0.000000e+00  0.000000e+00 6.618674e-02 0.000000e+00  0.000000e+00 0.000000e+00 0.000000e+00  -7.812796e-03 0.000000e+00 0.000000e+00  -7.812718e-03 2.473687e-02 0.000000e+00  -7.812672e-03 4.984647e-02 0.000000e+00  -7.812640e-03 7.531791e-02 0.000000e+00  -7.812616e-03 1.011399e-01 0.000000e+00  -7.812597e-03 1.273007e-01 0.000000e+00  -7.812580e-03 1.537883e-01 0.000000e+00  -7.812566e-03 1.805900e-01 0.000000e+00  -7.812553e-03 2.076930e-01 0.000000e+00  -7.812541e-03 2.350837e-01 0.000000e+00  -7.812530e-03 2.627486e-01 0.000000e+00  -7.812520e-03 2.906734e-01 0.000000e+00  -7.812510e-03 3.188435e-01 0.000000e+00  -7.812501e-03 3.472439e-01 0.000000e+00  -7.812492e-03 3.758594e-01 0.000000e+00  -7.812484e-03 4.046742e-01 0.000000e+00  -7.812476e-03 4.336721e-01 0.000000e+00  -7.812468e-03 4.628366e-01 0.000000e+00  -7.812461e-03 4.921509e-01 0.000000e+00  -7.812453e-03 5.215977e-01 0.000000e+00  -7.812446e-03 5.511595e-01 0.000000e+00  -7.812439e-03 5.808183e-01 0.000000e+00  -7.812433e-03 6.105557e-01 0.000000e+00  -7.812426e-03 6.403532e-01 0.000000e+00  -7.812420e-03 6.701917e-01 0.000000e+00  -7.812413e-03 7.000520e-01 0.000000e+00  -7.812407e-03 7.299145e-01 0.000000e+00  -7.812401e-03 7.597591e-01 0.000000e+00  -7.812395e-03 7.895657e-01 0.000000e+00  -7.812389e-03 8.193138e-01 0.000000e+00  -7.812384e-03 8.489826e-01 0.000000e+00  -7.812378e-03 8.785509e-01 0.000000e+00  -7.812372e-03 9.079974e-01 0.000000e+00  -7.812367e-03 9.373005e-01 0.000000e+00  -7.812361e-03 9.664383e-01 0.000000e+00  -7.812356e-03 9.953888e-01 0.000000e+00  -7.812350e-03 1.024130e+00 0.000000e+00  -7.812345e-03 1.052638e+00 0.000000e+00  -7.812340e-03 1.080892e+00 0.000000e+00  -7.812335e-03 1.108868e+00 0.000000e+00  -7.812330e-03 1.136544e+00 0.000000e+00  -7.812324e-03 1.163895e+00 0.000000e+00  -7.812319e-03 1.190899e+00 0.000000e+00  -7.812314e-03 1.217531e+00 0.000000e+00  -7.812309e-03 1.243769e+00 0.000000e+00  -7.812305e-03 1.269589e+00 0.000000e+00  -7.812300e-03 1.294966e+00 0.000000e+00  -7.812295e-03 1.319878e+00 0.000000e+00  -7.812290e-03 1.344298e+00 0.000000e+00  -7.812285e-03 1.368205e+00 0.000000e+00  -7.812280e-03 1.391574e+00 0.000000e+00  -7.812276e-03 1.414380e+00 0.000000e+00  -7.812271e-03 1.436599e+00 0.000000e+00  -7.812266e-03 1.458208e+00 0.000000e+00  -7.812261e-03 1.479182e+00 0.000000e+00  -7.812257e-03 1.499498e+00 0.000000e+00  -7.812252e-03 1.519131e+00 0.000000e+00  -7.812247e-03 1.538057e+00 0.000000e+00  -7.812243e-03 1.556253e+00 0.000000e+00  -7.812238e-03 1.573695e+00 0.000000e+00  -7.812233e-03 1.590360e+00 0.000000e+00  -7.812229e-03 1.606224e+00 0.000000e+00  -7.812224e-03 1.621263e+00 0.000000e+00  -7.812220e-03 1.635456e+00 0.000000e+00  -7.812215e-03 1.648778e+00 0.000000e+00  -7.812210e-03 1.661208e+00 0.000000e+00  -7.812206e-03 1.672723e+00 0.000000e+00  -7.812201e-03 1.683301e+00 0.000000e+00  -7.812196e-03 1.692920e+00 0.000000e+00  -7.812192e-03 1.701559e+00 0.000000e+00  -7.812187e-03 1.709196e+00 0.000000e+00  -7.812183e-03 1.715811e+00 0.000000e+00  -7.812178e-03 1.721382e+00 0.000000e+00  -7.812173e-03 1.725891e+00 0.000000e+00  -7.812169e-03 1.729316e+00 0.000000e+00  -7.812164e-03 1.731639e+00 0.000000e+00  -7.812159e-03 1.732841e+00 0.000000e+00  -7.812154e-03 1.732904e+00 0.000000e+00  -7.812150e-03 1.731808e+00 0.000000e+00  -7.812145e-03 1.729538e+00 0.000000e+00  -7.812140e-03 1.726076e+00 0.000000e+00  -7.812135e-03 1.721405e+00 0.000000e+00  -7.812130e-03 1.715509e+00 0.000000e+00  -7.812125e-03 1.708374e+00 0.000000e+00  -7.812120e-03 1.699984e+00 0.000000e+00  -7.812115e-03 1.690325e+00 0.000000e+00  -7.812110e-03 1.679384e+00 0.000000e+00  -7.812105e-03 1.667148e+00 0.000000e+00  -7.812100e-03 1.653605e+00 0.000000e+00  -7.812095e-03 1.638743e+00 0.000000e+00  -7.812090e-03 1.622551e+00 0.000000e+00  -7.812085e-03 1.605020e+00 0.000000e+00  -7.812079e-03 1.586139e+00 0.000000e+00  -7.812074e-03 1.565900e+00 0.000000e+00  -7.812069e-03 1.544296e+00 0.000000e+00  -7.812063e-03 1.521319e+00 0.000000e+00  -7.812058e-03 1.496964e+00 0.000000e+00  -7.812052e-03 1.471223e+00 0.000000e+00  -7.812046e-03 1.444094e+00 0.000000e+00  -7.812041e-03 1.415572e+00 0.000000e+00  -7.812035e-03 1.385655e+00 0.000000e+00  -7.812029e-03 1.354340e+00 0.000000e+00  -7.812023e-03 1.321626e+00 0.000000e+00  -7.812016e-03 1.287514e+00 0.000000e+00  -7.812010e-03 1.252003e+00 0.000000e+00  -7.812004e-03 1.215097e+00 0.000000e+00  -7.811997e-03 1.176797e+00 0.000000e+00  -7.811991e-03 1.137107e+00 0.000000e+00  -7.811984e-03 1.096032e+00 0.000000e+00  -7.811977e-03 1.053577e+00 0.000000e+00  -7.811969e-03 1.009749e+00 0.000000e+00  -7.811962e-03 9.645560e-01 0.000000e+00  -7.811954e-03 9.180065e-01 0.000000e+00  -7.811946e-03 8.701102e-01 0.000000e+00  -7.811938e-03 8.208781e-01 0.000000e+00  -7.811929e-03 7.703219e-01 0.000000e+00  -7.811920e-03 7.184546e-01 0.000000e+00  -7.811910e-03 6.652904e-01 0.000000e+00  -7.811900e-03 6.108442e-01 0.000000e+00  -7.811889e-03 5.551323e-01 0.000000e+00  -7.811877e-03 4.981721e-01 0.000000e+00  -7.811864e-03 4.399819e-01 0.000000e+00  -7.811850e-03 3.805815e-01 0.000000e+00  -7.811833e-03 3.199914e-01 0.000000e+00  -7.811814e-03 2.582335e-01 0.000000e+00  -7.811790e-03 1.953307e-01 0.000000e+00  -7.811758e-03 1.313071e-01 0.000000e+00  -7.811712e-03 6.618813e-02 0.000000e+00  -7.811634e-03 0.000000e+00 0.000000e+00  -1.562406e-02 0.000000e+00 0.000000e+00  -1.562395e-02 2.473653e-02 0.000000e+00  -1.562388e-02 4.984591e-02 0.000000e+00  -1.562382e-02 7.531722e-02 0.000000e+00  -1.562378e-02 1.011391e-01 0.000000e+00  -1.562374e-02 1.272999e-01 0.000000e+00  -1.562371e-02 1.537874e-01 0.000000e+00  -1.562368e-02 1.805890e-01 0.000000e+00  -1.562366e-02 2.076919e-01 0.000000e+00  -1.562363e-02 2.350827e-01 0.000000e+00  -1.562361e-02 2.627475e-01 0.000000e+00  -1.562359e-02 2.906722e-01 0.000000e+00  -1.562357e-02 3.188423e-01 0.000000e+00  -1.562355e-02 3.472427e-01 0.000000e+00  -1.562354e-02 3.758582e-01 0.000000e+00  -1.562352e-02 4.046729e-01 0.000000e+00  -1.562350e-02 4.336707e-01 0.000000e+00  -1.562349e-02 4.628352e-01 0.000000e+00  -1.562347e-02 4.921495e-01 0.000000e+00  -1.562346e-02 5.215963e-01 0.000000e+00  -1.562344e-02 5.511581e-01 0.000000e+00  -1.562343e-02 5.808168e-01 0.000000e+00  -1.562342e-02 6.105542e-01 0.000000e+00  -1.562340e-02 6.403516e-01 0.000000e+00  -1.562339e-02 6.701902e-01 0.000000e+00  -1.562338e-02 7.000504e-01 0.000000e+00  -1.562337e-02 7.299128e-01 0.000000e+00  -1.562335e-02 7.597575e-01 0.000000e+00  -1.562334e-02 7.895641e-01 0.000000e+00  -1.562333e-02 8.193122e-01 0.000000e+00  -1.562332e-02 8.489809e-01 0.000000e+00  -1.562331e-02 8.785491e-01 0.000000e+00  -1.562330e-02 9.079956e-01 0.000000e+00  -1.562329e-02 9.372987e-01 0.000000e+00  -1.562327e-02 9.664365e-01 0.000000e+00  -1.562326e-02 9.953870e-01 0.000000e+00  -1.562325e-02 1.024128e+00 0.000000e+00  -1.562324e-02 1.052637e+00 0.000000e+00  -1.562323e-02 1.080891e+00 0.000000e+00  -1.562322e-02 1.108867e+00 0.000000e+00  -1.562321e-02 1.136542e+00 0.000000e+00  -1.562320e-02 1.163893e+00 0.000000e+00  -1.562319e-02 1.190897e+00 0.000000e+00  -1.562318e-02 1.217529e+00 0.000000e+00  -1.562317e-02 1.243767e+00 0.000000e+00  -1.562316e-02 1.269587e+00 0.000000e+00  -1.562315e-02 1.294964e+00 0.000000e+00  -1.562314e-02 1.319876e+00 0.000000e+00  -1.562313e-02 1.344297e+00 0.000000e+00  -1.562312e-02 1.368203e+00 0.000000e+00  -1.562311e-02 1.391572e+00 0.000000e+00  -1.562310e-02 1.414378e+00 0.000000e+00  -1.562309e-02 1.436597e+00 0.000000e+00  -1.562308e-02 1.458206e+00 0.000000e+00  -1.562307e-02 1.479180e+00 0.000000e+00  -1.562307e-02 1.499496e+00 0.000000e+00  -1.562306e-02 1.519129e+00 0.000000e+00  -1.562305e-02 1.538055e+00 0.000000e+00  -1.562304e-02 1.556251e+00 0.000000e+00  -1.562303e-02 1.573694e+00 0.000000e+00  -1.562302e-02 1.590358e+00 0.000000e+00  -1.562301e-02 1.606222e+00 0.000000e+00  -1.562300e-02 1.621261e+00 0.000000e+00  -1.562299e-02 1.635454e+00 0.000000e+00  -1.562298e-02 1.648777e+00 0.000000e+00  -1.562297e-02 1.661206e+00 0.000000e+00  -1.562296e-02 1.672722e+00 0.000000e+00  -1.562295e-02 1.683299e+00 0.000000e+00  -1.562294e-02 1.692919e+00 0.000000e+00  -1.562294e-02 1.701557e+00 0.000000e+00  -1.562293e-02 1.709194e+00 0.000000e+00  -1.562292e-02 1.715809e+00 0.000000e+00  -1.562291e-02 1.721381e+00 0.000000e+00  -1.562290e-02 1.725889e+00 0.000000e+00  -1.562289e-02 1.729315e+00 0.000000e+00  -1.562288e-02 1.731638e+00 0.000000e+00  -1.562287e-02 1.732840e+00 0.000000e+00  -1.562286e-02 1.732902e+00 0.000000e+00  -1.562285e-02 1.731807e+00 0.000000e+00  -1.562284e-02 1.729537e+00 0.000000e+00  -1.562283e-02 1.726074e+00 0.000000e+00  -1.562282e-02 1.721403e+00 0.000000e+00  -1.562281e-02 1.715508e+00 0.000000e+00  -1.562280e-02 1.708373e+00 0.000000e+00  -1.562279e-02 1.699983e+00 0.000000e+00  -1.562278e-02 1.690324e+00 0.000000e+00  -1.562277e-02 1.679383e+00 0.000000e+00  -1.562276e-02 1.667148e+00 0.000000e+00  -1.562275e-02 1.653604e+00 0.000000e+00  -1.562274e-02 1.638742e+00 0.000000e+00  -1.562273e-02 1.622551e+00 0.000000e+00  -1.562272e-02 1.605019e+00 0.000000e+00  -1.562271e-02 1.586138e+00 0.000000e+00  -1.562270e-02 1.565900e+00 0.000000e+00  -1.562269e-02 1.544296e+00 0.000000e+00  -1.562268e-02 1.521319e+00 0.000000e+00  -1.562267e-02 1.496963e+00 0.000000e+00  -1.562266e-02 1.471223e+00 0.000000e+00  -1.562264e-02 1.444094e+00 0.000000e+00  -1.562263e-02 1.415572e+00 0.000000e+00  -1.562262e-02 1.385655e+00 0.000000e+00  -1.562261e-02 1.354340e+00 0.000000e+00  -1.562260e-02 1.321626e+00 0.000000e+00  -1.562259e-02 1.287514e+00 0.000000e+00  -1.562257e-02 1.252004e+00 0.000000e+00  -1.562256e-02 1.215097e+00 0.000000e+00  -1.562255e-02 1.176797e+00 0.000000e+00  -1.562253e-02 1.137107e+00 0.000000e+00  -1.562252e-02 1.096032e+00 0.000000e+00  -1.562251e-02 1.053577e+00 0.000000e+00  -1.562249e-02 1.009750e+00 0.000000e+00  -1.562248e-02 9.645566e-01 0.000000e+00  -1.562246e-02 9.180072e-01 0.000000e+00  -1.562244e-02 8.701111e-01 0.000000e+00  -1.562243e-02 8.208790e-01 0.000000e+00  -1.562241e-02 7.703229e-01 0.000000e+00  -1.562239e-02 7.184557e-01 0.000000e+00  -1.562237e-02 6.652915e-01 0.000000e+00  -1.562235e-02 6.108454e-01 0.000000e+00  -1.562233e-02 5.551335e-01 0.000000e+00  -1.562231e-02 4.981734e-01 0.000000e+00  -1.562228e-02 4.399833e-01 0.000000e+00  -1.562225e-02 3.805829e-01 0.000000e+00  -1.562222e-02 3.199928e-01 0.000000e+00  -1.562218e-02 2.582349e-01 0.000000e+00  -1.562214e-02 1.953320e-01 0.000000e+00  -1.562208e-02 1.313083e-01 0.000000e+00  -1.562201e-02 6.618889e-02 0.000000e+00  -1.562191e-02 0.000000e+00 0.000000e+00  -2.343235e-02 0.000000e+00 0.000000e+00  -2.343224e-02 2.473629e-02 0.000000e+00  -2.343215e-02 4.984549e-02 0.000000e+00  -2.343207e-02 7.531665e-02 0.000000e+00  -2.343201e-02 1.011384e-01 0.000000e+00  -2.343196e-02 1.272991e-01 0.000000e+00  -2.343191e-02 1.537865e-01 0.000000e+00  -2.343187e-02 1.805881e-01 0.000000e+00  -2.343183e-02 2.076910e-01 0.000000e+00  -2.343180e-02 2.350817e-01 0.000000e+00  -2.343177e-02 2.627465e-01 0.000000e+00  -2.343174e-02 2.906711e-01 0.000000e+00  -2.343171e-02 3.188412e-01 0.000000e+00  -2.343168e-02 3.472416e-01 0.000000e+00  -2.343166e-02 3.758570e-01 0.000000e+00  -2.343163e-02 4.046716e-01 0.000000e+00  -2.343161e-02 4.336695e-01 0.000000e+00  -2.343158e-02 4.628339e-01 0.000000e+00  -2.343156e-02 4.921482e-01 0.000000e+00  -2.343154e-02 5.215949e-01 0.000000e+00  -2.343152e-02 5.511567e-01 0.000000e+00  -2.343150e-02 5.808154e-01 0.000000e+00  -2.343148e-02 6.105527e-01 0.000000e+00  -2.343146e-02 6.403502e-01 0.000000e+00  -2.343144e-02 6.701886e-01 0.000000e+00  -2.343142e-02 7.000489e-01 0.000000e+00  -2.343140e-02 7.299113e-01 0.000000e+00  -2.343138e-02 7.597559e-01 0.000000e+00  -2.343137e-02 7.895625e-01 0.000000e+00  -2.343135e-02 8.193105e-01 0.000000e+00  -2.343133e-02 8.489792e-01 0.000000e+00  -2.343131e-02 8.785475e-01 0.000000e+00  -2.343130e-02 9.079939e-01 0.000000e+00  -2.343128e-02 9.372970e-01 0.000000e+00  -2.343126e-02 9.664348e-01 0.000000e+00  -2.343125e-02 9.953853e-01 0.000000e+00  -2.343123e-02 1.024126e+00 0.000000e+00  -2.343122e-02 1.052635e+00 0.000000e+00  -2.343120e-02 1.080889e+00 0.000000e+00  -2.343118e-02 1.108865e+00 0.000000e+00  -2.343117e-02 1.136540e+00 0.000000e+00  -2.343115e-02 1.163891e+00 0.000000e+00  -2.343114e-02 1.190895e+00 0.000000e+00  -2.343112e-02 1.217528e+00 0.000000e+00  -2.343111e-02 1.243766e+00 0.000000e+00  -2.343109e-02 1.269585e+00 0.000000e+00  -2.343108e-02 1.294963e+00 0.000000e+00  -2.343106e-02 1.319874e+00 0.000000e+00  -2.343105e-02 1.344295e+00 0.000000e+00  -2.343104e-02 1.368201e+00 0.000000e+00  -2.343102e-02 1.391570e+00 0.000000e+00  -2.343101e-02 1.414376e+00 0.000000e+00  -2.343099e-02 1.436595e+00 0.000000e+00  -2.343098e-02 1.458204e+00 0.000000e+00  -2.343096e-02 1.479179e+00 0.000000e+00  -2.343095e-02 1.499494e+00 0.000000e+00  -2.343094e-02 1.519127e+00 0.000000e+00  -2.343092e-02 1.538053e+00 0.000000e+00  -2.343091e-02 1.556250e+00 0.000000e+00  -2.343089e-02 1.573692e+00 0.000000e+00  -2.343088e-02 1.590356e+00 0.000000e+00  -2.343087e-02 1.606220e+00 0.000000e+00  -2.343085e-02 1.621260e+00 0.000000e+00  -2.343084e-02 1.635452e+00 0.000000e+00  -2.343083e-02 1.648775e+00 0.000000e+00  -2.343081e-02 1.661205e+00 0.000000e+00  -2.343080e-02 1.672720e+00 0.000000e+00  -2.343078e-02 1.683298e+00 0.000000e+00  -2.343077e-02 1.692917e+00 0.000000e+00  -2.343076e-02 1.701556e+00 0.000000e+00  -2.343074e-02 1.709193e+00 0.000000e+00  -2.343073e-02 1.715807e+00 0.000000e+00  -2.343071e-02 1.721379e+00 0.000000e+00  -2.343070e-02 1.725887e+00 0.000000e+00  -2.343069e-02 1.729313e+00 0.000000e+00  -2.343067e-02 1.731636e+00 0.000000e+00  -2.343066e-02 1.732838e+00 0.000000e+00  -2.343064e-02 1.732901e+00 0.000000e+00  -2.343063e-02 1.731806e+00 0.000000e+00  -2.343061e-02 1.729535e+00 0.000000e+00  -2.343060e-02 1.726073e+00 0.000000e+00  -2.343059e-02 1.721402e+00 0.000000e+00  -2.343057e-02 1.715507e+00 0.000000e+00  -2.343056e-02 1.708371e+00 0.000000e+00  -2.343054e-02 1.699982e+00 0.000000e+00  -2.343053e-02 1.690323e+00 0.000000e+00  -2.343051e-02 1.679382e+00 0.000000e+00  -2.343050e-02 1.667147e+00 0.000000e+00  -2.343048e-02 1.653603e+00 0.000000e+00  -2.343047e-02 1.638741e+00 0.000000e+00  -2.343045e-02 1.622550e+00 0.000000e+00  -2.343043e-02 1.605018e+00 0.000000e+00  -2.343042e-02 1.586138e+00 0.000000e+00  -2.343040e-02 1.565899e+00 0.000000e+00  -2.343039e-02 1.544295e+00 0.000000e+00  -2.343037e-02 1.521318e+00 0.000000e+00  -2.343035e-02 1.496963e+00 0.000000e+00  -2.343034e-02 1.471223e+00 0.000000e+00  -2.343032e-02 1.444094e+00 0.000000e+00  -2.343030e-02 1.415572e+00 0.000000e+00  -2.343028e-02 1.385654e+00 0.000000e+00  -2.343027e-02 1.354