<?xml version="1.0"?>
<VTKFile type="UnstructuredGrid"  version="0.1"  >
<UnstructuredGrid>
<Piece  NumberOfPoints="16641" NumberOfCells="32768">
<Points>
<DataArray  type="Float32"  NumberOfComponents="3"  format="ascii">0 0 0  0.0078125 0 0  0.015625 0 0  0.0234375 0 0  0.03125 0 0  0.0390625 0 0  0.046875 0 0  0.0546875 0 0  0.0625 0 0  0.0703125 0 0  0.078125 0 0  0.0859375 0 0  0.09375 0 0  0.101562 0 0  0.109375 0 0  0.117188 0 0  0.125 0 0  0.132812 0 0  0.140625 0 0  0.148438 0 0  0.15625 0 0  0.164062 0 0  0.171875 0 0  0.179688 0 0  0.1875 0 0  0.195312 0 0  0.203125 0 0  0.210938 0 0  0.21875 0 0  0.226562 0 0  0.234375 0 0  0.242188 0 0  0.25 0 0  0.257812 0 0  0.265625 0 0  0.273438 0 0  0.28125 0 0  0.289062 0 0  0.296875 0 0  0.304688 0 0  0.3125 0 0  0.320312 0 0  0.328125 0 0  0.335938 0 0  0.34375 0 0  0.351562 0 0  0.359375 0 0  0.367188 0 0  0.375 0 0  0.382812 0 0  0.390625 0 0  0.398438 0 0  0.40625 0 0  0.414062 0 0  0.421875 0 0  0.429688 0 0  0.4375 0 0  0.445312 0 0  0.453125 0 0  0.460938 0 0  0.46875 0 0  0.476562 0 0  0.484375 0 0  0.492188 0 0  0.5 0 0  0.507812 0 0  0.515625 0 0  0.523438 0 0  0.53125 0 0  0.539062 0 0  0.546875 0 0  0.554688 0 0  0.5625 0 0  0.570312 0 0  0.578125 0 0  0.585938 0 0  0.59375 0 0  0.601562 0 0  0.609375 0 0  0.617188 0 0  0.625 0 0  0.632812 0 0  0.640625 0 0  0.648438 0 0  0.65625 0 0  0.664062 0 0  0.671875 0 0  0.679688 0 0  0.6875 0 0  0.695312 0 0  0.703125 0 0  0.710938 0 0  0.71875 0 0  0.726562 0 0  0.734375 0 0  0.742188 0 0  0.75 0 0  0.757812 0 0  0.765625 0 0  0.773438 0 0  0.78125 0 0  0.789062 0 0  0.796875 0 0  0.804688 0 0  0.8125 0 0  0.820312 0 0  0.828125 0 0  0.835938 0 0  0.84375 0 0  0.851562 0 0  0.859375 0 0  0.867188 0 0  0.875 0 0  0.882812 0 0  0.890625 0 0  0.898438 0 0  0.90625 0 0  0.914062 0 0  0.921875 0 0  0.929688 0 0  0.9375 0 0  0.945312 0 0  0.953125 0 0  0.960938 0 0  0.96875 0 0  0.976562 0 0  0.984375 0 0  0.992188 0 0  1 0 0  0 0.0078125 0  0.0078125 0.0078125 0  0.015625 0.0078125 0  0.0234375 0.0078125 0  0.03125 0.0078125 0  0.0390625 0.0078125 0  0.046875 0.0078125 0  0.0546875 0.0078125 0  0.0625 0.0078125 0  0.0703125 0.0078125 0  0.078125 0.0078125 0  0.0859375 0.0078125 0  0.09375 0.0078125 0  0.101562 0.0078125 0  0.109375 0.0078125 0  0.117188 0.0078125 0  0.125 0.0078125 0  0.132812 0.0078125 0  0.140625 0.0078125 0  0.148438 0.0078125 0  0.15625 0.0078125 0  0.164062 0.0078125 0  0.171875 0.0078125 0  0.179688 0.0078125 0  0.1875 0.0078125 0  0.195312 0.0078125 0  0.203125 0.0078125 0  0.210938 0.0078125 0  0.21875 0.0078125 0  0.226562 0.0078125 0  0.234375 0.0078125 0  0.242188 0.0078125 0  0.25 0.0078125 0  0.257812 0.0078125 0  0.265625 0.0078125 0  0.273438 0.0078125 0  0.28125 0.0078125 0  0.289062 0.0078125 0  0.296875 0.0078125 0  0.304688 0.0078125 0  0.3125 0.0078125 0  0.320312 0.0078125 0  0.328125 0.0078125 0  0.335938 0.0078125 0  0.34375 0.0078125 0  0.351562 0.0078125 0  0.359375 0.0078125 0  0.367188 0.0078125 0  0.375 0.0078125 0  0.382812 0.0078125 0  0.390625 0.0078125 0  0.398438 0.0078125 0  0.40625 0.0078125 0  0.414062 0.0078125 0  0.421875 0.0078125 0  0.429688 0.0078125 0  0.4375 0.0078125 0  0.445312 0.0078125 0  0.453125 0.0078125 0  0.460938 0.0078125 0  0.46875 0.0078125 0  0.476562 0.0078125 0  0.484375 0.0078125 0  0.492188 0.0078125 0  0.5 0.0078125 0  0.507812 0.0078125 0  0.515625 0.0078125 0  0.523438 0.0078125 0  0.53125 0.0078125 0  0.539062 0.0078125 0  0.546875 0.0078125 0  0.554688 0.0078125 0  0.5625 0.0078125 0  0.570312 0.0078125 0  0.578125 0.0078125 0  0.585938 0.0078125 0  0.59375 0.0078125 0  0.601562 0.0078125 0  0.609375 0.0078125 0  0.617188 0.0078125 0  0.625 0.0078125 0  0.632812 0.0078125 0  0.640625 0.0078125 0  0.648438 0.0078125 0  0.65625 0.0078125 0  0.664062 0.0078125 0  0.671875 0.0078125 0  0.679688 0.0078125 0  0.6875 0.0078125 0  0.695312 0.0078125 0  0.703125 0.0078125 0  0.710938 0.0078125 0  0.71875 0.0078125 0  0.726562 0.0078125 0  0.734375 0.0078125 0  0.742188 0.0078125 0  0.75 0.0078125 0  0.757812 0.0078125 0  0.765625 0.0078125 0  0.773438 0.0078125 0  0.78125 0.0078125 0  0.789062 0.0078125 0  0.796875 0.0078125 0  0.804688 0.0078125 0  0.8125 0.0078125 0  0.820312 0.0078125 0  0.828125 0.0078125 0  0.835938 0.0078125 0  0.84375 0.0078125 0  0.851562 0.0078125 0  0.859375 0.0078125 0  0.867188 0.0078125 0  0.875 0.0078125 0  0.882812 0.0078125 0  0.890625 0.0078125 0  0.898438 0.0078125 0  0.90625 0.0078125 0  0.914062 0.0078125 0  0.921875 0.0078125 0  0.929688 0.0078125 0  0.9375 0.0078125 0  0.945312 0.0078125 0  0.953125 0.0078125 0  0.960938 0.0078125 0  0.96875 0.0078125 0  0.976562 0.0078125 0  0.984375 0.0078125 0  0.992188 0.0078125 0  1 0.0078125 0  0 0.015625 0  0.0078125 0.015625 0  0.015625 0.015625 0  0.0234375 0.015625 0  0.03125 0.015625 0  0.0390625 0.015625 0  0.046875 0.015625 0  0.0546875 0.015625 0  0.0625 0.015625 0  0.0703125 0.015625 0  0.078125 0.015625 0  0.0859375 0.015625 0  0.09375 0.015625 0  0.101562 0.015625 0  0.109375 0.015625 0  0.117188 0.015625 0  0.125 0.015625 0  0.132812 0.015625 0  0.140625 0.015625 0  0.148438 0.015625 0  0.15625 0.015625 0  0.164062 0.015625 0  0.171875 0.015625 0  0.179688 0.015625 0  0.1875 0.015625 0  0.195312 0.015625 0  0.203125 0.015625 0  0.210938 0.015625 0  0.21875 0.015625 0  0.226562 0.015625 0  0.234375 0.015625 0  0.242188 0.015625 0  0.25 0.015625 0  0.257812 0.015625 0  0.265625 0.015625 0  0.273438 0.015625 0  0.28125 0.015625 0  0.289062 0.015625 0  0.296875 0.015625 0  0.304688 0.015625 0  0.3125 0.015625 0  0.320312 0.015625 0  0.328125 0.015625 0  0.335938 0.015625 0  0.34375 0.015625 0  0.351562 0.015625 0  0.359375 0.015625 0  0.367188 0.015625 0  0.375 0.015625 0  0.382812 0.015625 0  0.390625 0.015625 0  0.398438 0.015625 0  0.40625 0.015625 0  0.414062 0.015625 0  0.421875 0.015625 0  0.429688 0.015625 0  0.4375 0.015625 0  0.445312 0.015625 0  0.453125 0.015625 0  0.460938 0.015625 0  0.46875 0.015625 0  0.476562 0.015625 0  0.484375 0.015625 0  0.492188 0.015625 0  0.5 0.015625 0  0.507812 0.015625 0  0.515625 0.015625 0  0.523438 0.015625 0  0.53125 0.015625 0  0.539062 0.015625 0  0.546875 0.015625 0  0.554688 0.015625 0  0.5625 0.015625 0  0.570312 0.015625 0  0.578125 0.015625 0  0.585938 0.015625 0  0.59375 0.015625 0  0.601562 0.015625 0  0.609375 0.015625 0  0.617188 0.015625 0  0.625 0.015625 0  0.632812 0.015625 0  0.640625 0.015625 0  0.648438 0.015625 0  0.65625 0.015625 0  0.664062 0.015625 0  0.671875 0.015625 0  0.679688 0.015625 0  0.6875 0.015625 0  0.695312 0.015625 0  0.703125 0.015625 0  0.710938 0.015625 0  0.71875 0.015625 0  0.726562 0.015625 0  0.734375 0.015625 0  0.742188 0.015625 0  0.75 0.015625 0  0.757812 0.015625 0  0.765625 0.015625 0  0.773438 0.015625 0  0.78125 0.015625 0  0.789062 0.015625 0  0.796875 0.015625 0  0.804688 0.015625 0  0.8125 0.015625 0  0.820312 0.015625 0  0.828125 0.015625 0  0.835938 0.015625 0  0.84375 0.015625 0  0.851562 0.015625 0  0.859375 0.015625 0  0.867188 0.015625 0  0.875 0.015625 0  0.882812 0.015625 0  0.890625 0.015625 0  0.898438 0.015625 0  0.90625 0.015625 0  0.914062 0.015625 0  0.921875 0.015625 0  0.929688 0.015625 0  0.9375 0.015625 0  0.945312 0.015625 0  0.953125 0.015625 0  0.960938 0.015625 0  0.96875 0.015625 0  0.976562 0.015625 0  0.984375 0.015625 0  0.992188 0.015625 0  1 0.015625 0  0 0.0234375 0  0.0078125 0.0234375 0  0.015625 0.0234375 0  0.0234375 0.0234375 0  0.03125 0.0234375 0  0.0390625 0.0234375 0  0.046875 0.0234375 0  0.0546875 0.0234375 0  0.0625 0.0234375 0  0.0703125 0.0234375 0  0.078125 0.0234375 0  0.0859375 0.0234375 0  0.09375 0.0234375 0  0.101562 0.0234375 0  0.109375 0.0234375 0  0.117188 0.0234375 0  0.125 0.0234375 0  0.132812 0.0234375 0  0.140625 0.0234375 0  0.148438 0.0234375 0  0.15625 0.0234375 0  0.164062 0.0234375 0  0.171875 0.0234375 0  0.179688 0.0234375 0  0.1875 0.0234375 0  0.195312 0.0234375 0  0.203125 0.0234375 0  0.210938 0.0234375 0  0.21875 0.0234375 0  0.226562 0.0234375 0  0.234375 0.0234375 0  0.242188 0.0234375 0  0.25 0.0234375 0  0.257812 0.0234375 0  0.265625 0.0234375 0  0.273438 0.0234375 0  0.28125 0.0234375 0  0.289062 0.0234375 0  0.296875 0.0234375 0  0.304688 0.0234375 0  0.3125 0.0234375 0  0.320312 0.0234375 0  0.328125 0.0234375 0  0.335938 0.0234375 0  0.34375 0.0234375 0  0.351562 0.0234375 0  0.359375 0.0234375 0  0.367188 0.0234375 0  0.375 0.0234375 0  0.382812 0.0234375 0  0.390625 0.0234375 0  0.398438 0.0234375 0  0.40625 0.0234375 0  0.414062 0.0234375 0  0.421875 0.0234375 0  0.429688 0.0234375 0  0.4375 0.0234375 0  0.445312 0.0234375 0  0.453125 0.0234375 0  0.460938 0.0234375 0  0.46875 0.0234375 0  0.476562 0.0234375 0  0.484375 0.0234375 0  0.492188 0.0234375 0  0.5 0.0234375 0  0.507812 0.0234375 0  0.515625 0.0234375 0  0.523438 0.0234375 0  0.53125 0.0234375 0  0.539062 0.0234375 0  0.546875 0.0234375 0  0.554688 0.0234375 0  0.5625 0.0234375 0  0.570312 0.0234375 0  0.578125 0.0234375 0  0.585938 0.0234375 0  0.59375 0.0234375 0  0.601562 0.0234375 0  0.609375 0.0234375 0  0.617188 0.0234375 0  0.625 0.0234375 0  0.632812 0.0234375 0  0.640625 0.0234375 0  0.648438 0.0234375 0  0.65625 0.0234375 0  0.664062 0.0234375 0  0.671875 0.0234375 0  0.679688 0.0234375 0  0.6875 0.0234375 0  0.695312 0.0234375 0  0.703125 0.0234375 0  0.710938 0.0234375 0  0.71875 0.0234375 0  0.726562 0.0234375 0  0.734375 0.0234375 0  0.742188 0.0234375 0  0.75 0.0234375 0  0.757812 0.0234375 0  0.765625 0.0234375 0  0.773438 0.0234375 0  0.78125 0.0234375 0  0.789062 0.0234375 0  0.796875 0.0234375 0  0.804688 0.0234375 0  0.8125 0.0234375 0  0.820312 0.0234375 0  0.828125 0.0234375 0  0.835938 0.0234375 0  0.84375 0.0234375 0  0.851562 0.0234375 0  0.859375 0.0234375 0  0.867188 0.0234375 0  0.875 0.0234375 0  0.882812 0.0234375 0  0.890625 0.0234375 0  0.898438 0.0234375 0  0.90625 0.0234375 0  0.914062 0.0234375 0  0.921875 0.0234375 0  0.929688 0.0234375 0  0.9375 0.0234375 0  0.945312 0.0234
[...]
<PointData  Vectors="u"> 
<DataArray  type="Float32"  Name="u"  NumberOfComponents="3" format="ascii">0.000000e+00 0.000000e+00 0.000000e+00  0.000000e+00 2.473365e-02 0.000000e+00  0.000000e+00 4.984031e-02 0.000000e+00  0.000000e+00 7.530903e-02 0.000000e+00  0.000000e+00 1.011285e-01 0.000000e+00  0.000000e+00 1.272869e-01 0.000000e+00  0.000000e+00 1.537721e-01 0.000000e+00  0.000000e+00 1.805717e-01 0.000000e+00  0.000000e+00 2.076725e-01 0.000000e+00  0.000000e+00 2.350612e-01 0.000000e+00  0.000000e+00 2.627241e-01 0.000000e+00  0.000000e+00 2.906470e-01 0.000000e+00  0.000000e+00 3.188153e-01 0.000000e+00  0.000000e+00 3.472139e-01 0.000000e+00  0.000000e+00 3.758277e-01 0.000000e+00  0.000000e+00 4.046408e-01 0.000000e+00  0.000000e+00 4.336370e-01 0.000000e+00  0.000000e+00 4.628000e-01 0.000000e+00  0.000000e+00 4.921128e-01 0.000000e+00  0.000000e+00 5.215582e-01 0.000000e+00  0.000000e+00 5.511185e-01 0.000000e+00  0.000000e+00 5.807759e-01 0.000000e+00  0.000000e+00 6.105120e-01 0.000000e+00  0.000000e+00 6.403082e-01 0.000000e+00  0.000000e+00 6.701455e-01 0.000000e+00  0.000000e+00 7.000046e-01 0.000000e+00  0.000000e+00 7.298659e-01 0.000000e+00  0.000000e+00 7.597095e-01 0.000000e+00  0.000000e+00 7.895151e-01 0.000000e+00  0.000000e+00 8.192622e-01 0.000000e+00  0.000000e+00 8.489299e-01 0.000000e+00  0.000000e+00 8.784973e-01 0.000000e+00  0.000000e+00 9.079429e-01 0.000000e+00  0.000000e+00 9.372452e-01 0.000000e+00  0.000000e+00 9.663823e-01 0.000000e+00  0.000000e+00 9.953321e-01 0.000000e+00  0.000000e+00 1.024072e+00 0.000000e+00  0.000000e+00 1.052580e+00 0.000000e+00  0.000000e+00 1.080834e+00 0.000000e+00  0.000000e+00 1.108809e+00 0.000000e+00  0.000000e+00 1.136484e+00 0.000000e+00  0.000000e+00 1.163835e+00 0.000000e+00  0.000000e+00 1.190838e+00 0.000000e+00  0.000000e+00 1.217470e+00 0.000000e+00  0.000000e+00 1.243708e+00 0.000000e+00  0.000000e+00 1.269528e+00 0.000000e+00  0.000000e+00 1.294905e+00 0.000000e+00  0.000000e+00 1.319816e+00 0.000000e+00  0.000000e+00 1.344237e+00 0.000000e+00  0.000000e+00 1.368143e+00 0.000000e+00  0.000000e+00 1.391512e+00 0.000000e+00  0.000000e+00 1.414318e+00 0.000000e+00  0.000000e+00 1.436537e+00 0.000000e+00  0.000000e+00 1.458146e+00 0.000000e+00  0.000000e+00 1.479121e+00 0.000000e+00  0.000000e+00 1.499437e+00 0.000000e+00  0.000000e+00 1.519070e+00 0.000000e+00  0.000000e+00 1.537997e+00 0.000000e+00  0.000000e+00 1.556193e+00 0.000000e+00  0.000000e+00 1.573635e+00 0.000000e+00  0.000000e+00 1.590301e+00 0.000000e+00  0.000000e+00 1.606165e+00 0.000000e+00  0.000000e+00 1.621205e+00 0.000000e+00  0.000000e+00 1.635398e+00 0.000000e+00  0.000000e+00 1.648721e+00 0.000000e+00  0.000000e+00 1.661152e+00 0.000000e+00  0.000000e+00 1.672667e+00 0.000000e+00  0.000000e+00 1.683246e+00 0.000000e+00  0.000000e+00 1.692866e+00 0.000000e+00  0.000000e+00 1.701506e+00 0.000000e+00  0.000000e+00 1.709144e+00 0.000000e+00  0.000000e+00 1.715759e+00 0.000000e+00  0.000000e+00 1.721332e+00 0.000000e+00  0.000000e+00 1.725841e+00 0.000000e+00  0.000000e+00 1.729268e+00 0.000000e+00  0.000000e+00 1.731592e+00 0.000000e+00  0.000000e+00 1.732795e+00 0.000000e+00  0.000000e+00 1.732859e+00 0.000000e+00  0.000000e+00 1.731764e+00 0.000000e+00  0.000000e+00 1.729495e+00 0.000000e+00  0.000000e+00 1.726034e+00 0.000000e+00  0.000000e+00 1.721364e+00 0.000000e+00  0.000000e+00 1.715470e+00 0.000000e+00  0.000000e+00 1.708336e+00 0.000000e+00  0.000000e+00 1.699948e+00 0.000000e+00  0.000000e+00 1.690290e+00 0.000000e+00  0.000000e+00 1.679351e+00 0.000000e+00  0.000000e+00 1.667117e+00 0.000000e+00  0.000000e+00 1.653575e+00 0.000000e+00  0.000000e+00 1.638714e+00 0.000000e+00  0.000000e+00 1.622524e+00 0.000000e+00  0.000000e+00 1.604994e+00 0.000000e+00  0.000000e+00 1.586114e+00 0.000000e+00  0.000000e+00 1.565877e+00 0.000000e+00  0.000000e+00 1.544275e+00 0.000000e+00  0.000000e+00 1.521299e+00 0.000000e+00  0.000000e+00 1.496945e+00 0.000000e+00  0.000000e+00 1.471206e+00 0.000000e+00  0.000000e+00 1.444079e+00 0.000000e+00  0.000000e+00 1.415558e+00 0.000000e+00  0.000000e+00 1.385642e+00 0.000000e+00  0.000000e+00 1.354329e+00 0.000000e+00  0.000000e+00 1.321617e+00 0.000000e+00  0.000000e+00 1.287506e+00 0.000000e+00  0.000000e+00 1.251997e+00 0.000000e+00  0.000000e+00 1.215092e+00 0.000000e+00  0.000000e+00 1.176793e+00 0.000000e+00  0.000000e+00 1.137104e+00 0.000000e+00  0.000000e+00 1.096030e+00 0.000000e+00  0.000000e+00 1.053577e+00 0.000000e+00  0.000000e+00 1.009750e+00 0.000000e+00  0.000000e+00 9.645583e-01 0.000000e+00  0.000000e+00 9.180099e-01 0.000000e+00  0.000000e+00 8.701147e-01 0.000000e+00  0.000000e+00 8.208834e-01 0.000000e+00  0.000000e+00 7.703281e-01 0.000000e+00  0.000000e+00 7.184616e-01 0.000000e+00  0.000000e+00 6.652979e-01 0.000000e+00  0.000000e+00 6.108522e-01 0.000000e+00  0.000000e+00 5.551407e-01 0.000000e+00  0.000000e+00 4.981807e-01 0.000000e+00  0.000000e+00 4.399906e-01 0.000000e+00  0.000000e+00 3.805900e-01 0.000000e+00  0.000000e+00 3.199995e-01 0.000000e+00  0.000000e+00 2.582409e-01 0.000000e+00  0.000000e+00 1.953371e-01 0.000000e+00  0.000000e+00 1.313121e-01 0.000000e+00  0.000000e+00 6.619097e-02 0.000000e+00  0.000000e+00 0.000000e+00 0.000000e+00  -7.812253e-03 0.000000e+00 0.000000e+00  -7.812261e-03 2.473372e-02 0.000000e+00  -7.812261e-03 4.984038e-02 0.000000e+00  -7.812261e-03 7.530910e-02 0.000000e+00  -7.812260e-03 1.011285e-01 0.000000e+00  -7.812260e-03 1.272870e-01 0.000000e+00  -7.812260e-03 1.537722e-01 0.000000e+00  -7.812260e-03 1.805717e-01 0.000000e+00  -7.812260e-03 2.076726e-01 0.000000e+00  -7.812260e-03 2.350613e-01 0.000000e+00  -7.812260e-03 2.627242e-01 0.000000e+00  -7.812260e-03 2.906471e-01 0.000000e+00  -7.812260e-03 3.188153e-01 0.000000e+00  -7.812260e-03 3.472140e-01 0.000000e+00  -7.812260e-03 3.758278e-01 0.000000e+00  -7.812260e-03 4.046409e-01 0.000000e+00  -7.812260e-03 4.336371e-01 0.000000e+00  -7.812260e-03 4.628001e-01 0.000000e+00  -7.812260e-03 4.921129e-01 0.000000e+00  -7.812260e-03 5.215583e-01 0.000000e+00  -7.812260e-03 5.511186e-01 0.000000e+00  -7.812260e-03 5.807760e-01 0.000000e+00  -7.812260e-03 6.105121e-01 0.000000e+00  -7.812260e-03 6.403083e-01 0.000000e+00  -7.812260e-03 6.701456e-01 0.000000e+00  -7.812260e-03 7.000047e-01 0.000000e+00  -7.812260e-03 7.298660e-01 0.000000e+00  -7.812260e-03 7.597096e-01 0.000000e+00  -7.812260e-03 7.895152e-01 0.000000e+00  -7.812260e-03 8.192623e-01 0.000000e+00  -7.812260e-03 8.489301e-01 0.000000e+00  -7.812260e-03 8.784974e-01 0.000000e+00  -7.812260e-03 9.079431e-01 0.000000e+00  -7.812260e-03 9.372454e-01 0.000000e+00  -7.812260e-03 9.663824e-01 0.000000e+00  -7.812260e-03 9.953323e-01 0.000000e+00  -7.812260e-03 1.024072e+00 0.000000e+00  -7.812260e-03 1.052581e+00 0.000000e+00  -7.812260e-03 1.080834e+00 0.000000e+00  -7.812260e-03 1.108809e+00 0.000000e+00  -7.812260e-03 1.136484e+00 0.000000e+00  -7.812260e-03 1.163835e+00 0.000000e+00  -7.812260e-03 1.190838e+00 0.000000e+00  -7.812260e-03 1.217471e+00 0.000000e+00  -7.812260e-03 1.243708e+00 0.000000e+00  -7.812260e-03 1.269528e+00 0.000000e+00  -7.812260e-03 1.294905e+00 0.000000e+00  -7.812260e-03 1.319816e+00 0.000000e+00  -7.812260e-03 1.344237e+00 0.000000e+00  -7.812260e-03 1.368143e+00 0.000000e+00  -7.812260e-03 1.391512e+00 0.000000e+00  -7.812260e-03 1.414318e+00 0.000000e+00  -7.812260e-03 1.436538e+00 0.000000e+00  -7.812260e-03 1.458147e+00 0.000000e+00  -7.812260e-03 1.479121e+00 0.000000e+00  -7.812260e-03 1.499437e+00 0.000000e+00  -7.812260e-03 1.519070e+00 0.000000e+00  -7.812260e-03 1.537997e+00 0.000000e+00  -7.812260e-03 1.556193e+00 0.000000e+00  -7.812260e-03 1.573636e+00 0.000000e+00  -7.812260e-03 1.590301e+00 0.000000e+00  -7.812260e-03 1.606165e+00 0.000000e+00  -7.812260e-03 1.621205e+00 0.000000e+00  -7.812260e-03 1.635398e+00 0.000000e+00  -7.812260e-03 1.648721e+00 0.000000e+00  -7.812260e-03 1.661152e+00 0.000000e+00  -7.812260e-03 1.672668e+00 0.000000e+00  -7.812260e-03 1.683246e+00 0.000000e+00  -7.812260e-03 1.692866e+00 0.000000e+00  -7.812260e-03 1.701506e+00 0.000000e+00  -7.812260e-03 1.709144e+00 0.000000e+00  -7.812260e-03 1.715759e+00 0.000000e+00  -7.812260e-03 1.721332e+00 0.000000e+00  -7.812260e-03 1.725841e+00 0.000000e+00  -7.812260e-03 1.729268e+00 0.000000e+00  -7.812260e-03 1.731592e+00 0.000000e+00  -7.812260e-03 1.732795e+00 0.000000e+00  -7.812260e-03 1.732859e+00 0.000000e+00  -7.812260e-03 1.731765e+00 0.000000e+00  -7.812260e-03 1.729495e+00 0.000000e+00  -7.812260e-03 1.726034e+00 0.000000e+00  -7.812260e-03 1.721364e+00 0.000000e+00  -7.812260e-03 1.715470e+00 0.000000e+00  -7.812260e-03 1.708336e+00 0.000000e+00  -7.812260e-03 1.699948e+00 0.000000e+00  -7.812260e-03 1.690291e+00 0.000000e+00  -7.812260e-03 1.679351e+00 0.000000e+00  -7.812260e-03 1.667117e+00 0.000000e+00  -7.812260e-03 1.653575e+00 0.000000e+00  -7.812260e-03 1.638714e+00 0.000000e+00  -7.812260e-03 1.622524e+00 0.000000e+00  -7.812260e-03 1.604994e+00 0.000000e+00  -7.812260e-03 1.586114e+00 0.000000e+00  -7.812260e-03 1.565877e+00 0.000000e+00  -7.812260e-03 1.544275e+00 0.000000e+00  -7.812260e-03 1.521299e+00 0.000000e+00  -7.812260e-03 1.496945e+00 0.000000e+00  -7.812260e-03 1.471206e+00 0.000000e+00  -7.812260e-03 1.444079e+00 0.000000e+00  -7.812260e-03 1.415558e+00 0.000000e+00  -7.812260e-03 1.385642e+00 0.000000e+00  -7.812260e-03 1.354329e+00 0.000000e+00  -7.812260e-03 1.321617e+00 0.000000e+00  -7.812260e-03 1.287506e+00 0.000000e+00  -7.812260e-03 1.251997e+00 0.000000e+00  -7.812260e-03 1.215092e+00 0.000000e+00  -7.812260e-03 1.176793e+00 0.000000e+00  -7.812260e-03 1.137104e+00 0.000000e+00  -7.812260e-03 1.096030e+00 0.000000e+00  -7.812260e-03 1.053577e+00 0.000000e+00  -7.812260e-03 1.009750e+00 0.000000e+00  -7.812260e-03 9.645583e-01 0.000000e+00  -7.812260e-03 9.180098e-01 0.000000e+00  -7.812260e-03 8.701146e-01 0.000000e+00  -7.812260e-03 8.208834e-01 0.000000e+00  -7.812260e-03 7.703280e-01 0.000000e+00  -7.812260e-03 7.184615e-01 0.000000e+00  -7.812260e-03 6.652978e-01 0.000000e+00  -7.812260e-03 6.108521e-01 0.000000e+00  -7.812260e-03 5.551406e-01 0.000000e+00  -7.812260e-03 4.981806e-01 0.000000e+00  -7.812260e-03 4.399905e-01 0.000000e+00  -7.812260e-03 3.805899e-01 0.000000e+00  -7.812260e-03 3.199994e-01 0.000000e+00  -7.812260e-03 2.582408e-01 0.000000e+00  -7.812260e-03 1.953369e-01 0.000000e+00  -7.812260e-03 1.313119e-01 0.000000e+00  -7.812259e-03 6.619081e-02 0.000000e+00  -7.812268e-03 0.000000e+00 0.000000e+00  -1.562306e-02 0.000000e+00 0.000000e+00  -1.562307e-02 2.473371e-02 0.000000e+00  -1.562307e-02 4.984038e-02 0.000000e+00  -1.562307e-02 7.530910e-02 0.000000e+00  -1.562307e-02 1.011285e-01 0.000000e+00  -1.562307e-02 1.272870e-01 0.000000e+00  -1.562307e-02 1.537722e-01 0.000000e+00  -1.562307e-02 1.805717e-01 0.000000e+00  -1.562307e-02 2.076726e-01 0.000000e+00  -1.562307e-02 2.350613e-01 0.000000e+00  -1.562307e-02 2.627242e-01 0.000000e+00  -1.562307e-02 2.906471e-01 0.000000e+00  -1.562307e-02 3.188153e-01 0.000000e+00  -1.562307e-02 3.472140e-01 0.000000e+00  -1.562307e-02 3.758278e-01 0.000000e+00  -1.562307e-02 4.046409e-01 0.000000e+00  -1.562307e-02 4.336371e-01 0.000000e+00  -1.562307e-02 4.628001e-01 0.000000e+00  -1.562307e-02 4.921129e-01 0.000000e+00  -1.562307e-02 5.215583e-01 0.000000e+00  -1.562307e-02 5.511186e-01 0.000000e+00  -1.562307e-02 5.807760e-01 0.000000e+00  -1.562307e-02 6.105121e-01 0.000000e+00  -1.562307e-02 6.403083e-01 0.000000e+00  -1.562307e-02 6.701456e-01 0.000000e+00  -1.562307e-02 7.000047e-01 0.000000e+00  -1.562307e-02 7.298660e-01 0.000000e+00  -1.562307e-02 7.597096e-01 0.000000e+00  -1.562307e-02 7.895152e-01 0.000000e+00  -1.562307e-02 8.192623e-01 0.000000e+00  -1.562307e-02 8.489301e-01 0.000000e+00  -1.562307e-02 8.784974e-01 0.000000e+00  -1.562307e-02 9.079431e-01 0.000000e+00  -1.562307e-02 9.372454e-01 0.000000e+00  -1.562307e-02 9.663824e-01 0.000000e+00  -1.562307e-02 9.953323e-01 0.000000e+00  -1.562307e-02 1.024072e+00 0.000000e+00  -1.562307e-02 1.052581e+00 0.000000e+00  -1.562307e-02 1.080834e+00 0.000000e+00  -1.562307e-02 1.108809e+00 0.000000e+00  -1.562307e-02 1.136484e+00 0.000000e+00  -1.562307e-02 1.163835e+00 0.000000e+00  -1.562307e-02 1.190838e+00 0.000000e+00  -1.562307e-02 1.217471e+00 0.000000e+00  -1.562307e-02 1.243708e+00 0.000000e+00  -1.562307e-02 1.269528e+00 0.000000e+00  -1.562307e-02 1.294905e+00 0.000000e+00  -1.562307e-02 1.319816e+00 0.000000e+00  -1.562307e-02 1.344237e+00 0.000000e+00  -1.562307e-02 1.368143e+00 0.000000e+00  -1.562307e-02 1.391512e+00 0.000000e+00  -1.562307e-02 1.414318e+00 0.000000e+00  -1.562307e-02 1.436538e+00 0.000000e+00  -1.562307e-02 1.458147e+00 0.000000e+00  -1.562307e-02 1.479121e+00 0.000000e+00  -1.562307e-02 1.499437e+00 0.000000e+00  -1.562307e-02 1.519070e+00 0.000000e+00  -1.562307e-02 1.537997e+00 0.000000e+00  -1.562307e-02 1.556193e+00 0.000000e+00  -1.562307e-02 1.573636e+00 0.000000e+00  -1.562307e-02 1.590301e+00 0.000000e+00  -1.562307e-02 1.606165e+00 0.000000e+00  -1.562307e-02 1.621205e+00 0.000000e+00  -1.562307e-02 1.635398e+00 0.000000e+00  -1.562307e-02 1.648721e+00 0.000000e+00  -1.562307e-02 1.661152e+00 0.000000e+00  -1.562307e-02 1.672668e+00 0.000000e+00  -1.562307e-02 1.683246e+00 0.000000e+00  -1.562307e-02 1.692866e+00 0.000000e+00  -1.562307e-02 1.701506e+00 0.000000e+00  -1.562307e-02 1.709144e+00 0.000000e+00  -1.562307e-02 1.715759e+00 0.000000e+00  -1.562307e-02 1.721332e+00 0.000000e+00  -1.562307e-02 1.725841e+00 0.000000e+00  -1.562307e-02 1.729268e+00 0.000000e+00  -1.562307e-02 1.731592e+00 0.000000e+00  -1.562307e-02 1.732795e+00 0.000000e+00  -1.562307e-02 1.732859e+00 0.000000e+00  -1.562307e-02 1.731765e+00 0.000000e+00  -1.562307e-02 1.729495e+00 0.000000e+00  -1.562307e-02 1.726034e+00 0.000000e+00  -1.562307e-02 1.721364e+00 0.000000e+00  -1.562307e-02 1.715470e+00 0.000000e+00  -1.562307e-02 1.708336e+00 0.000000e+00  -1.562307e-02 1.699948e+00 0.000000e+00  -1.562307e-02 1.690291e+00 0.000000e+00  -1.562307e-02 1.679351e+00 0.000000e+00  -1.562307e-02 1.667117e+00 0.000000e+00  -1.562307e-02 1.653575e+00 0.000000e+00  -1.562307e-02 1.638714e+00 0.000000e+00  -1.562307e-02 1.622524e+00 0.000000e+00  -1.562307e-02 1.604994e+00 0.000000e+00  -1.562307e-02 1.586114e+00 0.000000e+00  -1.562307e-02 1.565877e+00 0.000000e+00  -1.562307e-02 1.544275e+00 0.000000e+00  -1.562307e-02 1.521299e+00 0.000000e+00  -1.562307e-02 1.496945e+00 0.000000e+00  -1.562307e-02 1.471206e+00 0.000000e+00  -1.562307e-02 1.444079e+00 0.000000e+00  -1.562307e-02 1.415558e+00 0.000000e+00  -1.562307e-02 1.385642e+00 0.000000e+00  -1.562307e-02 1.354329e+00 0.000000e+00  -1.562307e-02 1.321617e+00 0.000000e+00  -1.562307e-02 1.287506e+00 0.000000e+00  -1.562307e-02 1.251997e+00 0.000000e+00  -1.562307e-02 1.215092e+00 0.000000e+00  -1.562307e-02 1.176793e+00 0.000000e+00  -1.562307e-02 1.137104e+00 0.000000e+00  -1.562307e-02 1.096030e+00 0.000000e+00  -1.562307e-02 1.053577e+00 0.000000e+00  -1.562307e-02 1.009750e+00 0.000000e+00  -1.562307e-02 9.645583e-01 0.000000e+00  -1.562307e-02 9.180098e-01 0.000000e+00  -1.562307e-02 8.701146e-01 0.000000e+00  -1.562307e-02 8.208834e-01 0.000000e+00  -1.562307e-02 7.703280e-01 0.000000e+00  -1.562307e-02 7.184615e-01 0.000000e+00  -1.562307e-02 6.652978e-01 0.000000e+00  -1.562307e-02 6.108521e-01 0.000000e+00  -1.562307e-02 5.551406e-01 0.000000e+00  -1.562307e-02 4.981806e-01 0.000000e+00  -1.562307e-02 4.399905e-01 0.000000e+00  -1.562307e-02 3.805899e-01 0.000000e+00  -1.562307e-02 3.199994e-01 0.000000e+00  -1.562307e-02 2.582408e-01 0.000000e+00  -1.562307e-02 1.953369e-01 0.000000e+00  -1.562307e-02 1.313119e-01 0.000000e+00  -1.562307e-02 6.619083e-02 0.000000e+00  -1.562308e-02 0.000000e+00 0.000000e+00  -2.343095e-02 0.000000e+00 0.000000e+00  -2.343096e-02 2.473371e-02 0.000000e+00  -2.343096e-02 4.984038e-02 0.000000e+00  -2.343096e-02 7.530910e-02 0.000000e+00  -2.343096e-02 1.011285e-01 0.000000e+00  -2.343096e-02 1.272870e-01 0.000000e+00  -2.343096e-02 1.537722e-01 0.000000e+00  -2.343096e-02 1.805717e-01 0.000000e+00  -2.343096e-02 2.076726e-01 0.000000e+00  -2.343096e-02 2.350613e-01 0.000000e+00  -2.343096e-02 2.627242e-01 0.000000e+00  -2.343096e-02 2.906471e-01 0.000000e+00  -2.343096e-02 3.188153e-01 0.000000e+00  -2.343096e-02 3.472140e-01 0.000000e+00  -2.343096e-02 3.758278e-01 0.000000e+00  -2.343096e-02 4.046409e-01 0.000000e+00  -2.343096e-02 4.336371e-01 0.000000e+00  -2.343096e-02 4.628001e-01 0.000000e+00  -2.343096e-02 4.921129e-01 0.000000e+00  -2.343096e-02 5.215583e-01 0.000000e+00  -2.343096e-02 5.511186e-01 0.000000e+00  -2.343096e-02 5.807760e-01 0.000000e+00  -2.343096e-02 6.105121e-01 0.000000e+00  -2.343096e-02 6.403083e-01 0.000000e+00  -2.343096e-02 6.701456e-01 0.000000e+00  -2.343096e-02 7.000047e-01 0.000000e+00  -2.343096e-02 7.298660e-01 0.000000e+00  -2.343096e-02 7.597096e-01 0.000000e+00  -2.343096e-02 7.895152e-01 0.000000e+00  -2.343096e-02 8.192623e-01 0.000000e+00  -2.343096e-02 8.489301e-01 0.000000e+00  -2.343096e-02 8.784974e-01 0.000000e+00  -2.343096e-02 9.079431e-01 0.000000e+00  -2.343096e-02 9.372454e-01 0.000000e+00  -2.343096e-02 9.663824e-01 0.000000e+00  -2.343096e-02 9.953323e-01 0.000000e+00  -2.343096e-02 1.024072e+00 0.000000e+00  -2.343096e-02 1.052581e+00 0.000000e+00  -2.343096e-02 1.080834e+00 0.000000e+00  -2.343096e-02 1.108809e+00 0.000000e+00  -2.343096e-02 1.136484e+00 0.000000e+00  -2.343096e-02 1.163835e+00 0.000000e+00  -2.343096e-02 1.190838e+00 0.000000e+00  -2.343096e-02 1.217471e+00 0.000000e+00  -2.343096e-02 1.243708e+00 0.000000e+00  -2.343096e-02 1.269528e+00 0.000000e+00  -2.343096e-02 1.294905e+00 0.000000e+00  -2.343096e-02 1.319816e+00 0.000000e+00  -2.343096e-02 1.344237e+00 0.000000e+00  -2.343096e-02 1.368143e+00 0.000000e+00  -2.343096e-02 1.391512e+00 0.000000e+00  -2.343096e-02 1.414318e+00 0.000000e+00  -2.343096e-02 1.436538e+00 0.000000e+00  -2.343096e-02 1.458147e+00 0.000000e+00  -2.343096e-02 1.479121e+00 0.000000e+00  -2.343096e-02 1.499437e+00 0.000000e+00  -2.343096e-02 1.519070e+00 0.000000e+00  -2.343096e-02 1.537997e+00 0.000000e+00  -2.343096e-02 1.556193e+00 0.000000e+00  -2.343096e-02 1.573636e+00 0.000000e+00  -2.343096e-02 1.590301e+00 0.000000e+00  -2.343096e-02 1.606165e+00 0.000000e+00  -2.343096e-02 1.621205e+00 0.000000e+00  -2.343096e-02 1.635398e+00 0.000000e+00  -2.343096e-02 1.648721e+00 0.000000e+00  -2.343096e-02 1.661152e+00 0.000000e+00  -2.343096e-02 1.672668e+00 0.000000e+00  -2.343096e-02 1.683246e+00 0.000000e+00  -2.343096e-02 1.692866e+00 0.000000e+00  -2.343096e-02 1.701506e+00 0.000000e+00  -2.343096e-02 1.709144e+00 0.000000e+00  -2.343096e-02 1.715759e+00 0.000000e+00  -2.343096e-02 1.721332e+00 0.000000e+00  -2.343096e-02 1.725841e+00 0.000000e+00  -2.343096e-02 1.729268e+00 0.000000e+00  -2.343096e-02 1.731592e+00 0.000000e+00  -2.343096e-02 1.732795e+00 0.000000e+00  -2.343096e-02 1.732859e+00 0.000000e+00  -2.343096e-02 1.731765e+00 0.000000e+00  -2.343096e-02 1.729495e+00 0.000000e+00  -2.343096e-02 1.726034e+00 0.000000e+00  -2.343096e-02 1.721364e+00 0.000000e+00  -2.343096e-02 1.715470e+00 0.000000e+00  -2.343096e-02 1.708336e+00 0.000000e+00  -2.343096e-02 1.699948e+00 0.000000e+00  -2.343096e-02 1.690291e+00 0.000000e+00  -2.343096e-02 1.679351e+00 0.000000e+00  -2.343096e-02 1.667117e+00 0.000000e+00  -2.343096e-02 1.653575e+00 0.000000e+00  -2.343096e-02 1.638714e+00 0.000000e+00  -2.343096e-02 1.622524e+00 0.000000e+00  -2.343096e-02 1.604994e+00 0.000000e+00  -2.343096e-02 1.586114e+00 0.000000e+00  -2.343096e-02 1.565877e+00 0.000000e+00  -2.343096e-02 1.544275e+00 0.000000e+00  -2.343096e-02 1.521299e+00 0.000000e+00  -2.343096e-02 1.496945e+00 0.000000e+00  -2.343096e-02 1.471206e+00 0.000000e+00  -2.343096e-02 1.444079e+00 0.000000e+00  -2.343096e-02 1.415558e+00 0.000000e+00  -2.343096e-02 1.385642e+00 0.000000e+00  -2.343096e-02 1.354