<?xml version="1.0"?>
<VTKFile type="UnstructuredGrid"  version="0.1"  >
<UnstructuredGrid>
<Piece  NumberOfPoints="81" NumberOfCells="128">
<Points>
<DataArray  type="Float32"  NumberOfComponents="3"  format="ascii">0 0 0  0.125 0 0  0.25 0 0  0.375 0 0  0.5 0 0  0.625 0 0  0.75 0 0  0.875 0 0  1 0 0  0 0.125 0  0.125 0.125 0  0.25 0.125 0  0.375 0.125 0  0.5 0.125 0  0.625 0.125 0  0.75 0.125 0  0.875 0.125 0  1 0.125 0  0 0.25 0  0.125 0.25 0  0.25 0.25 0  0.375 0.25 0  0.5 0.25 0  0.625 0.25 0  0.75 0.25 0  0.875 0.25 0  1 0.25 0  0 0.375 0  0.125 0.375 0  0.25 0.375 0  0.375 0.375 0  0.5 0.375 0  0.625 0.375 0  0.75 0.375 0  0.875 0.375 0  1 0.375 0  0 0.5 0  0.125 0.5 0  0.25 0.5 0  0.375 0.5 0  0.5 0.5 0  0.625 0.5 0  0.75 0.5 0  0.875 0.5 0  1 0.5 0  0 0.625 0  0.125 0.625 0  0.25 0.625 0  0.375 0.625 0  0.5 0.625 0  0.625 0.625 0  0.75 0.625 0  0.875 0.625 0  1 0.625 0  0 0.75 0  0.125 0.75 0  0.25 0.75 0  0.375 0.75 0  0.5 0.75 0  0.625 0.75 0  0.75 0.75 0  0.875 0.75 0  1 0.75 0  0 0.875 0  0.125 0.875 0  0.25 0.875 0  0.375 0.875 0  0.5 0.875 0  0.625 0.875 0  0.75 0.875 0  0.875 0.875 0  1 0.875 0  0 1 0  0.125 1 0  0.25 1 0  0.375 1 0  0.5 1 0  0.625 1 0  0.75 1 0  0.875 1 0  1 1 0  </DataArray>
</Points>
<Cells>
<DataArray  type="UInt32"  Name="connectivity"  format="ascii">0 1 10  0 9 10  1 2 11  1 10 11  2 3 12  2 11 12  3 4 13  3 12 13  4 5 14  4 13 14  5 6 15  5 14 15  6 7 16  6 15 16  7 8 17  7 16 17  9 10 19  9 18 19  10 11 20  10 19 20  11 12 21  11 20 21  12 13 22  12 21 22  13 14 23  13 22 23  14 15 24  14 23 24  15 16 25  15 24 25  16 17 26  16 25 26  18 19 28  18 27 28  19 20 29  19 28 29  20 21 30  20 29 30  21 22 31  21 30 31  22 23 32  22 31 32  23 24 33  23 32 33  24 25 34  24 33 34  25 26 35  25 34 35  27 28 37  27 36 37  28 29 38  28 37 38  29 30 39  29 38 39  30 31 40  30 39 40  31 32 41  31 40 41  32 33 42  32 41 42  33 34 43  33 42 43  34 35 44  34 43 44  36 37 46  36 45 46  37 38 47  37 46 47  38 39 48  38 47 48  39 40 49  39 48 49  40 41 50  40 49 50  41 42 51  41 50 51  42 43 52  42 51 52  43 44 53  43 52 53  45 46 55  45 54 55  46 47 56  46 55 56  47 48 57  47 56 57  48 49 58  48 57 58  49 50 59  49 58 59  50 51 60  50 59 60  51 52 61  51 60 61  52 53 62  52 61 62  54 55 64  54 63 64  55 56 65  55 64 65  56 57 66  56 65 66  57 58 67  57 66 67  58 59 68  58 67 68  59 60 69  59 68 69  60 61 70  60 69 70  61 62 71  61 70 71  63 64 73  63 72 73  64 65 74  64 73 74  65 66 75  65 74 75  66 67 76  66 75 76  67 68 77  67 76 77  68 69 78  68 77 78  69 70 79  69 78 79  70 71 80  70 79 80  </DataArray>
<DataArray  type="UInt32"  Name="offsets"  format="ascii">3 6 9 12 15 18 21 24 27 30 33 36 39 42 45 48 51 54 57 60 63 66 69 72 75 78 81 84 87 90 93 96 99 102 105 108 111 114 117 120 123 126 129 132 135 138 141 144 147 150 153 156 159 162 165 168 171 174 177 180 183 186 189 192 195 198 201 204 207 210 213 216 219 222 225 228 231 234 237 240 243 246 249 252 255 258 261 264 267 270 273 276 279 282 285 288 291 294 297 300 303 306 309 312 315 318 321 324 327 330 333 336 339 342 345 348 351 354 357 360 363 366 369 372 375 378 381 384 </DataArray>
<DataArray  type="UInt8"  Name="types"  format="ascii">5 5 5 5 5 5 5 5 5 5 5 5 5 5 5 5 5 5 5 5 5 5 5 5 5 5 5 5 5 5 5 5 5 5 5 5 5 5 5 5 5 5 5 5 5 5 5 5 5 5 5 5 5 5 5 5 5 5 5 5 5 5 5 5 5 5 5 5 5 5 5 5 5 5 5 5 5 5 5 5 5 5 5 5 5 5 5 5 5 5 5 5 5 5 5 5 5 5 5 5 5 5 5 5 5 5 5 5 5 5 5 5 5 5 5 5 5 5 5 5 5 5 5 5 5 5 5 5 </DataArray>
</Cells>
<PointData  Vectors="u"> 
<DataArray  type="Float32"  Name="u"  NumberOfComponents="3" format="ascii">0.000000e+00 0.000000e+00 0.000000e+00  0.000000e+00 4.336433e-01 0.000000e+00  0.000000e+00 9.079459e-01 0.000000e+00  0.000000e+00 1.344235e+00 0.000000e+00  0.000000e+00 1.648714e+00 0.000000e+00  0.000000e+00 1.726020e+00 0.000000e+00  0.000000e+00 1.496926e+00 0.000000e+00  0.000000e+00 9.179881e-01 0.000000e+00  0.000000e+00 0.000000e+00 0.000000e+00  -1.239389e-01 0.000000e+00 0.000000e+00  -1.239388e-01 4.336442e-01 0.000000e+00  -1.239388e-01 9.079477e-01 0.000000e+00  -1.239388e-01 1.344237e+00 0.000000e+00  -1.239388e-01 1.648717e+00 0.000000e+00  -1.239388e-01 1.726024e+00 0.000000e+00  -1.239388e-01 1.496929e+00 0.000000e+00  -1.239389e-01 9.179897e-01 0.000000e+00  -1.239388e-01 0.000000e+00 0.000000e+00  -2.407558e-01 0.000000e+00 0.000000e+00  -2.407557e-01 4.336442e-01 0.000000e+00  -2.407557e-01 9.079476e-01 0.000000e+00  -2.407557e-01 1.344237e+00 0.000000e+00  -2.407557e-01 1.648717e+00 0.000000e+00  -2.407557e-01 1.726024e+00 0.000000e+00  -2.407557e-01 1.496929e+00 0.000000e+00  -2.407557e-01 9.179897e-01 0.000000e+00  -2.407556e-01 0.000000e+00 0.000000e+00  -3.410149e-01 0.000000e+00 0.000000e+00  -3.410148e-01 4.336442e-01 0.000000e+00  -3.410148e-01 9.079476e-01 0.000000e+00  -3.410148e-01 1.344237e+00 0.000000e+00  -3.410148e-01 1.648717e+00 0.000000e+00  -3.410148e-01 1.726024e+00 0.000000e+00  -3.410148e-01 1.496929e+00 0.000000e+00  -3.410148e-01 9.179897e-01 0.000000e+00  -3.410146e-01 0.000000e+00 0.000000e+00  -4.121819e-01 0.000000e+00 0.000000e+00  -4.121817e-01 4.336442e-01 0.000000e+00  -4.121817e-01 9.079476e-01 0.000000e+00  -4.121817e-01 1.344237e+00 0.000000e+00  -4.121817e-01 1.648716e+00 0.000000e+00  -4.121817e-01 1.726024e+00 0.000000e+00  -4.121817e-01 1.496929e+00 0.000000e+00  -4.121817e-01 9.179896e-01 0.000000e+00  -4.121816e-01 0.000000e+00 0.000000e+00  -4.378721e-01 0.000000e+00 0.000000e+00  -4.378719e-01 4.336442e-01 0.000000e+00  -4.378719e-01 9.079476e-01 0.000000e+00  -4.378719e-01 1.344237e+00 0.000000e+00  -4.378719e-01 1.648716e+00 0.000000e+00  -4.378719e-01 1.726024e+00 0.000000e+00  -4.378719e-01 1.496929e+00 0.000000e+00  -4.378719e-01 9.179896e-01 0.000000e+00  -4.378717e-01 0.000000e+00 0.000000e+00  -3.969399e-01 0.000000e+00 0.000000e+00  -3.969396e-01 4.336441e-01 0.000000e+00  -3.969396e-01 9.079476e-01 0.000000e+00  -3.969396e-01 1.344237e+00 0.000000e+00  -3.969396e-01 1.648716e+00 0.000000e+00  -3.969396e-01 1.726023e+00 0.000000e+00  -3.969396e-01 1.496929e+00 0.000000e+00  -3.969396e-01 9.179896e-01 0.000000e+00  -3.969394e-01 0.000000e+00 0.000000e+00  -2.623798e-01 0.000000e+00 0.000000e+00  -2.623796e-01 4.336441e-01 0.000000e+00  -2.623796e-01 9.079476e-01 0.000000e+00  -2.623796e-01 1.344237e+00 0.000000e+00  -2.623796e-01 1.648716e+00 0.000000e+00  -2.623796e-01 1.726023e+00 0.000000e+00  -2.623796e-01 1.496929e+00 0.000000e+00  -2.623796e-01 9.179896e-01 0.000000e+00  -2.623793e-01 0.000000e+00 0.000000e+00  0.000000e+00 0.000000e+00 0.000000e+00  0.000000e+00 4.336450e-01 0.000000e+00  0.000000e+00 9.079493e-01 0.000000e+00  0.000000e+00 1.344240e+00 0.000000e+00  0.000000e+00 1.648719e+00 0.000000e+00  0.000000e+00 1.726027e+00 0.000000e+00  0.000000e+00 1.496931e+00 0.000000e+00  0.000000e+00 9.179911e-01 0.000000e+00  0.000000e+00 0.000000e+00 0.000000e+00  </DataArray> 
</PointData> 
</Piece>
</UnstructuredGrid>
</VTKFile>