<?xml version="1.0"?>
<VTKFile type="UnstructuredGrid"  version="0.1"  >
<UnstructuredGrid>
<Piece  NumberOfPoints="4225" NumberOfCells="8192">
<Points>
<DataArray  type="Float32"  NumberOfComponents="3"  format="ascii">0 0 0  0.015625 0 0  0.03125 0 0  0.046875 0 0  0.0625 0 0  0.078125 0 0  0.09375 0 0  0.109375 0 0  0.125 0 0  0.140625 0 0  0.15625 0 0  0.171875 0 0  0.1875 0 0  0.203125 0 0  0.21875 0 0  0.234375 0 0  0.25 0 0  0.265625 0 0  0.28125 0 0  0.296875 0 0  0.3125 0 0  0.328125 0 0  0.34375 0 0  0.359375 0 0  0.375 0 0  0.390625 0 0  0.40625 0 0  0.421875 0 0  0.4375 0 0  0.453125 0 0  0.46875 0 0  0.484375 0 0  0.5 0 0  0.515625 0 0  0.53125 0 0  0.546875 0 0  0.5625 0 0  0.578125 0 0  0.59375 0 0  0.609375 0 0  0.625 0 0  0.640625 0 0  0.65625 0 0  0.671875 0 0  0.6875 0 0  0.703125 0 0  0.71875 0 0  0.734375 0 0  0.75 0 0  0.765625 0 0  0.78125 0 0  0.796875 0 0  0.8125 0 0  0.828125 0 0  0.84375 0 0  0.859375 0 0  0.875 0 0  0.890625 0 0  0.90625 0 0  0.921875 0 0  0.9375 0 0  0.953125 0 0  0.96875 0 0  0.984375 0 0  1 0 0  0 0.015625 0  0.015625 0.015625 0  0.03125 0.015625 0  0.046875 0.015625 0  0.0625 0.015625 0  0.078125 0.015625 0  0.09375 0.015625 0  0.109375 0.015625 0  0.125 0.015625 0  0.140625 0.015625 0  0.15625 0.015625 0  0.171875 0.015625 0  0.1875 0.015625 0  0.203125 0.015625 0  0.21875 0.015625 0  0.234375 0.015625 0  0.25 0.015625 0  0.265625 0.015625 0  0.28125 0.015625 0  0.296875 0.015625 0  0.3125 0.015625 0  0.328125 0.015625 0  0.34375 0.015625 0  0.359375 0.015625 0  0.375 0.015625 0  0.390625 0.015625 0  0.40625 0.015625 0  0.421875 0.015625 0  0.4375 0.015625 0  0.453125 0.015625 0  0.46875 0.015625 0  0.484375 0.015625 0  0.5 0.015625 0  0.515625 0.015625 0  0.53125 0.015625 0  0.546875 0.015625 0  0.5625 0.015625 0  0.578125 0.015625 0  0.59375 0.015625 0  0.609375 0.015625 0  0.625 0.015625 0  0.640625 0.015625 0  0.65625 0.015625 0  0.671875 0.015625 0  0.6875 0.015625 0  0.703125 0.015625 0  0.71875 0.015625 0  0.734375 0.015625 0  0.75 0.015625 0  0.765625 0.015625 0  0.78125 0.015625 0  0.796875 0.015625 0  0.8125 0.015625 0  0.828125 0.015625 0  0.84375 0.015625 0  0.859375 0.015625 0  0.875 0.015625 0  0.890625 0.015625 0  0.90625 0.015625 0  0.921875 0.015625 0  0.9375 0.015625 0  0.953125 0.015625 0  0.96875 0.015625 0  0.984375 0.015625 0  1 0.015625 0  0 0.03125 0  0.015625 0.03125 0  0.03125 0.03125 0  0.046875 0.03125 0  0.0625 0.03125 0  0.078125 0.03125 0  0.09375 0.03125 0  0.109375 0.03125 0  0.125 0.03125 0  0.140625 0.03125 0  0.15625 0.03125 0  0.171875 0.03125 0  0.1875 0.03125 0  0.203125 0.03125 0  0.21875 0.03125 0  0.234375 0.03125 0  0.25 0.03125 0  0.265625 0.03125 0  0.28125 0.03125 0  0.296875 0.03125 0  0.3125 0.03125 0  0.328125 0.03125 0  0.34375 0.03125 0  0.359375 0.03125 0  0.375 0.03125 0  0.390625 0.03125 0  0.40625 0.03125 0  0.421875 0.03125 0  0.4375 0.03125 0  0.453125 0.03125 0  0.46875 0.03125 0  0.484375 0.03125 0  0.5 0.03125 0  0.515625 0.03125 0  0.53125 0.03125 0  0.546875 0.03125 0  0.5625 0.03125 0  0.578125 0.03125 0  0.59375 0.03125 0  0.609375 0.03125 0  0.625 0.03125 0  0.640625 0.03125 0  0.65625 0.03125 0  0.671875 0.03125 0  0.6875 0.03125 0  0.703125 0.03125 0  0.71875 0.03125 0  0.734375 0.03125 0  0.75 0.03125 0  0.765625 0.03125 0  0.78125 0.03125 0  0.796875 0.03125 0  0.8125 0.03125 0  0.828125 0.03125 0  0.84375 0.03125 0  0.859375 0.03125 0  0.875 0.03125 0  0.890625 0.03125 0  0.90625 0.03125 0  0.921875 0.03125 0  0.9375 0.03125 0  0.953125 0.03125 0  0.96875 0.03125 0  0.984375 0.03125 0  1 0.03125 0  0 0.046875 0  0.015625 0.046875 0  0.03125 0.046875 0  0.046875 0.046875 0  0.0625 0.046875 0  0.078125 0.046875 0  0.09375 0.046875 0  0.109375 0.046875 0  0.125 0.046875 0  0.140625 0.046875 0  0.15625 0.046875 0  0.171875 0.046875 0  0.1875 0.046875 0  0.203125 0.046875 0  0.21875 0.046875 0  0.234375 0.046875 0  0.25 0.046875 0  0.265625 0.046875 0  0.28125 0.046875 0  0.296875 0.046875 0  0.3125 0.046875 0  0.328125 0.046875 0  0.34375 0.046875 0  0.359375 0.046875 0  0.375 0.046875 0  0.390625 0.046875 0  0.40625 0.046875 0  0.421875 0.046875 0  0.4375 0.046875 0  0.453125 0.046875 0  0.46875 0.046875 0  0.484375 0.046875 0  0.5 0.046875 0  0.515625 0.046875 0  0.53125 0.046875 0  0.546875 0.046875 0  0.5625 0.046875 0  0.578125 0.046875 0  0.59375 0.046875 0  0.609375 0.046875 0  0.625 0.046875 0  0.640625 0.046875 0  0.65625 0.046875 0  0.671875 0.046875 0  0.6875 0.046875 0  0.703125 0.046875 0  0.71875 0.046875 0  0.734375 0.046875 0  0.75 0.046875 0  0.765625 0.046875 0  0.78125 0.046875 0  0.796875 0.046875 0  0.8125 0.046875 0  0.828125 0.046875 0  0.84375 0.046875 0  0.859375 0.046875 0  0.875 0.046875 0  0.890625 0.046875 0  0.90625 0.046875 0  0.921875 0.046875 0  0.9375 0.046875 0  0.953125 0.046875 0  0.96875 0.046875 0  0.984375 0.046875 0  1 0.046875 0  0 0.0625 0  0.015625 0.0625 0  0.03125 0.0625 0  0.046875 0.0625 0  0.0625 0.0625 0  0.078125 0.0625 0  0.09375 0.0625 0  0.109375 0.0625 0  0.125 0.0625 0  0.140625 0.0625 0  0.15625 0.0625 0  0.171875 0.0625 0  0.1875 0.0625 0  0.203125 0.0625 0  0.21875 0.0625 0  0.234375 0.0625 0  0.25 0.0625 0  0.265625 0.0625 0  0.28125 0.0625 0  0.296875 0.0625 0  0.3125 0.0625 0  0.328125 0.0625 0  0.34375 0.0625 0  0.359375 0.0625 0  0.375 0.0625 0  0.390625 0.0625 0  0.40625 0.0625 0  0.421875 0.0625 0  0.4375 0.0625 0  0.453125 0.0625 0  0.46875 0.0625 0  0.484375 0.0625 0  0.5 0.0625 0  0.515625 0.0625 0  0.53125 0.0625 0  0.546875 0.0625 0  0.5625 0.0625 0  0.578125 0.0625 0  0.59375 0.0625 0  0.609375 0.0625 0  0.625 0.0625 0  0.640625 0.0625 0  0.65625 0.0625 0  0.671875 0.0625 0  0.6875 0.0625 0  0.703125 0.0625 0  0.71875 0.0625 0  0.734375 0.0625 0  0.75 0.0625 0  0.765625 0.0625 0  0.78125 0.0625 0  0.796875 0.0625 0  0.8125 0.0625 0  0.828125 0.0625 0  0.84375 0.0625 0  0.859375 0.0625 0  0.875 0.0625 0  0.890625 0.0625 0  0.90625 0.0625 0  0.921875 0.0625 0  0.9375 0.0625 0  0.953125 0.0625 0  0.96875 0.0625 0  0.984375 0.0625 0  1 0.0625 0  0 0.078125 0  0.015625 0.078125 0  0.03125 0.078125 0  0.046875 0.078125 0  0.0625 0.078125 0  0.078125 0.078125 0  0.09375 0.078125 0  0.109375 0.078125 0  0.125 0.078125 0  0.140625 0.078125 0  0.15625 0.078125 0  0.171875 0.078125 0  0.1875 0.078125 0  0.203125 0.078125 0  0.21875 0.078125 0  0.234375 0.078125 0  0.25 0.078125 0  0.265625 0.078125 0  0.28125 0.078125 0  0.296875 0.078125 0  0.3125 0.078125 0  0.328125 0.078125 0  0.34375 0.078125 0  0.359375 0.078125 0  0.375 0.078125 0  0.390625 0.078125 0  0.40625 0.078125 0  0.421875 0.078125 0  0.4375 0.078125 0  0.453125 0.078125 0  0.46875 0.078125 0  0.484375 0.078125 0  0.5 0.078125 0  0.515625 0.078125 0  0.53125 0.078125 0  0.546875 0.078125 0  0.5625 0.078125 0  0.578125 0.078125 0  0.59375 0.078125 0  0.609375 0.078125 0  0.625 0.078125 0  0.640625 0.078125 0  0.65625 0.078125 0  0.671875 0.078125 0  0.6875 0.078125 0  0.703125 0.078125 0  0.71875 0.078125 0  0.734375 0.078125 0  0.75 0.078125 0  0.765625 0.078125 0  0.78125 0.078125 0  0.796875 0.078125 0  0.8125 0.078125 0  0.828125 0.078125 0  0.84375 0.078125 0  0.859375 0.078125 0  0.875 0.078125 0  0.890625 0.078125 0  0.90625 0.078125 0  0.921875 0.078125 0  0.9375 0.078125 0  0.953125 0.078125 0  0.96875 0.078125 0  0.984375 0.078125 0  1 0.078125 0  0 0.09375 0  0.015625 0.09375 0  0.03125 0.09375 0  0.046875 0.09375 0  0.0625 0.09375 0  0.078125 0.09375 0  0.09375 0.09375 0  0.109375 0.09375 0  0.125 0.09375 0  0.140625 0.09375 0  0.15625 0.09375 0  0.171875 0.09375 0  0.1875 0.09375 0  0.203125 0.09375 0  0.21875 0.09375 0  0.234375 0.09375 0  0.25 0.09375 0  0.265625 0.09375 0  0.28125 0.09375 0  0.296875 0.09375 0  0.3125 0.09375 0  0.328125 0.09375 0  0.34375 0.09375 0  0.359375 0.09375 0  0.375 0.09375 0  0.390625 0.09375 0  0.40625 0.09375 0  0.421875 0.09375 0  0.4375 0.09375 0  0.453125 0.09375 0  0.46875 0.09375 0  0.484375 0.09375 0  0.5 0.09375 0  0.515625 0.09375 0  0.53125 0.09375 0  0.546875 0.09375 0  0.5625 0.09375 0  0.578125 0.09375 0  0.59375 0.09375 0  0.609375 0.09375 0  0.625 0.09375 0  0.640625 0.09375 0  0.65625 0.09375 0  0.671875 0.09375 0  0.6875 0.09375 0  0.703125 0.09375 0  0.71875 0.09375 0  0.734375 0.09375 0  0.75 0.09375 0  0.765625 0.09375 0  0.78125 0.09375 0  0.796875 0.09375 0  0.8125 0.09375 0  0.828125 0.09375 0  0.84375 0.09375 0  0.859375 0.09375 0  0.875 0.09375 0  0.890625 0.09375 0  0.90625 0.09375 0  0.921875 0.09375 0  0.9375 0.09375 0  0.953125 0.09375 0  0.96875 0.09375 0  0.984375 0.09375 0  1 0.09375 0  0 0.109375 0  0.015625 0.109375 0  0.03125 0.109375 0  0.046875 0.109375 0  0.0625 0.109375 0  0.078125 0.109375 0  0.09375 0.109375 0  0.109375 0.109375 0  0.125 0.109375 0  0.140625 0.109375 0  0.15625 0.109375 0  0.171875 0.109375 0  0.1875 0.109375 0  0.203125 0.109375 0  0.21875 0.109375 0  0.234375 0.109375 0  0.25 0.109375 0  0.265625 0.109375 0  0.28125 0.109375 0  0.296875 0.109375 0  0.3125 0.109375 0  0.328125 0.109375 0  0.34375 0.109375 0  0.359375 0.109375 0  0.375 0.109375 0  0.390625 0.109375 0  0.40625 0.109375 0  0.421875 0.109375 0  0.4375 0.109375 0  0.453125 0.109375 0  0.46875 0.109375 0  0.484375 0.109375 0  0.5 0.109375 0  0.515625 0.109375 0  0.53125 0.109375 0  0.546875 0.109375 0  0.5625 0.109375 0  0.578125 0.109375 0  0.59375 0.109375 0  0.609375 0.109375 0  0.625 0.109375 0  0.640625 0.109375 0  0.65625 0.109375 0  0.671875 0.109375 0  0.6875 0.109375 0  0.703125 0.109375 0  0.71875 0.109375 0  0.734375 0.109375 0  0.75 0.109375 0  0.765625 0.109375 0  0.78125 0.109375 0  0.796875 0.109375 0  0.8125 0.109375 0  0.828125 0.109375 0  0.84375 0.109375 0  0.859375 0.109375 0  0.875 0.109375 0  0.890625 0.109375 0  0.90625 0.109375 0  0.921875 0.109375 0  0.9375 0.109375 0  0.953125 0.109375 0  0.96875 0.109375 0  0.984375 0.109375 0  1 0.109375 0  0 0.125 0  0.015625 0.125 0  0.03125 0.125 0  0.046875 0.125 0  0.0625 0.125 0  0.078125 0.125 0  0.09375 0.125 0  0.109375 0.125 0  0.125 0.12
[...]
<PointData  Vectors="u"> 
<DataArray  type="Float32"  Name="u"  NumberOfComponents="3" format="ascii">0.000000e+00 0.000000e+00 0.000000e+00  0.000000e+00 4.986731e-02 0.000000e+00  0.000000e+00 1.011774e-01 0.000000e+00  0.000000e+00 1.538403e-01 0.000000e+00  0.000000e+00 2.077583e-01 0.000000e+00  0.000000e+00 2.628263e-01 0.000000e+00  0.000000e+00 3.189327e-01 0.000000e+00  0.000000e+00 3.759594e-01 0.000000e+00  0.000000e+00 4.337822e-01 0.000000e+00  0.000000e+00 4.922705e-01 0.000000e+00  0.000000e+00 5.512880e-01 0.000000e+00  0.000000e+00 6.106925e-01 0.000000e+00  0.000000e+00 6.703363e-01 0.000000e+00  0.000000e+00 7.300662e-01 0.000000e+00  0.000000e+00 7.897241e-01 0.000000e+00  0.000000e+00 8.491470e-01 0.000000e+00  0.000000e+00 9.081672e-01 0.000000e+00  0.000000e+00 9.666131e-01 0.000000e+00  0.000000e+00 1.024309e+00 0.000000e+00  0.000000e+00 1.081075e+00 0.000000e+00  0.000000e+00 1.136730e+00 0.000000e+00  0.000000e+00 1.191087e+00 0.000000e+00  0.000000e+00 1.243960e+00 0.000000e+00  0.000000e+00 1.295158e+00 0.000000e+00  0.000000e+00 1.344491e+00 0.000000e+00  0.000000e+00 1.391767e+00 0.000000e+00  0.000000e+00 1.436792e+00 0.000000e+00  0.000000e+00 1.479374e+00 0.000000e+00  0.000000e+00 1.519321e+00 0.000000e+00  0.000000e+00 1.556442e+00 0.000000e+00  0.000000e+00 1.590546e+00 0.000000e+00  0.000000e+00 1.621446e+00 0.000000e+00  0.000000e+00 1.648957e+00 0.000000e+00  0.000000e+00 1.672897e+00 0.000000e+00  0.000000e+00 1.693089e+00 0.000000e+00  0.000000e+00 1.709360e+00 0.000000e+00  0.000000e+00 1.721540e+00 0.000000e+00  0.000000e+00 1.729467e+00 0.000000e+00  0.000000e+00 1.732986e+00 0.000000e+00  0.000000e+00 1.731946e+00 0.000000e+00  0.000000e+00 1.726205e+00 0.000000e+00  0.000000e+00 1.715630e+00 0.000000e+00  0.000000e+00 1.700097e+00 0.000000e+00  0.000000e+00 1.679488e+00 0.000000e+00  0.000000e+00 1.653700e+00 0.000000e+00  0.000000e+00 1.622637e+00 0.000000e+00  0.000000e+00 1.586215e+00 0.000000e+00  0.000000e+00 1.544363e+00 0.000000e+00  0.000000e+00 1.497021e+00 0.000000e+00  0.000000e+00 1.444142e+00 0.000000e+00  0.000000e+00 1.385693e+00 0.000000e+00  0.000000e+00 1.321655e+00 0.000000e+00  0.000000e+00 1.252023e+00 0.000000e+00  0.000000e+00 1.176807e+00 0.000000e+00  0.000000e+00 1.096033e+00 0.000000e+00  0.000000e+00 1.009743e+00 0.000000e+00  0.000000e+00 9.179932e-01 0.000000e+00  0.000000e+00 8.208585e-01 0.000000e+00  0.000000e+00 7.184297e-01 0.000000e+00  0.000000e+00 6.108152e-01 0.000000e+00  0.000000e+00 4.981408e-01 0.000000e+00  0.000000e+00 3.805502e-01 0.000000e+00  0.000000e+00 2.582053e-01 0.000000e+00  0.000000e+00 1.312874e-01 0.000000e+00  0.000000e+00 0.000000e+00 0.000000e+00  -1.562694e-02 0.000000e+00 0.000000e+00  -1.562629e-02 4.986241e-02 0.000000e+00  -1.562590e-02 1.011707e-01 0.000000e+00  -1.562562e-02 1.538327e-01 0.000000e+00  -1.562541e-02 2.077499e-01 0.000000e+00  -1.562523e-02 2.628172e-01 0.000000e+00  -1.562507e-02 3.189230e-01 0.000000e+00  -1.562493e-02 3.759492e-01 0.000000e+00  -1.562479e-02 4.337714e-01 0.000000e+00  -1.562467e-02 4.922593e-01 0.000000e+00  -1.562456e-02 5.512763e-01 0.000000e+00  -1.562445e-02 6.106803e-01 0.000000e+00  -1.562435e-02 6.703237e-01 0.000000e+00  -1.562425e-02 7.300532e-01 0.000000e+00  -1.562415e-02 7.897107e-01 0.000000e+00  -1.562406e-02 8.491332e-01 0.000000e+00  -1.562397e-02 9.081531e-01 0.000000e+00  -1.562388e-02 9.665987e-01 0.000000e+00  -1.562379e-02 1.024294e+00 0.000000e+00  -1.562371e-02 1.081060e+00 0.000000e+00  -1.562363e-02 1.136715e+00 0.000000e+00  -1.562355e-02 1.191072e+00 0.000000e+00  -1.562347e-02 1.243945e+00 0.000000e+00  -1.562339e-02 1.295143e+00 0.000000e+00  -1.562331e-02 1.344476e+00 0.000000e+00  -1.562323e-02 1.391751e+00 0.000000e+00  -1.562316e-02 1.436776e+00 0.000000e+00  -1.562308e-02 1.479359e+00 0.000000e+00  -1.562301e-02 1.519306e+00 0.000000e+00  -1.562293e-02 1.556426e+00 0.000000e+00  -1.562286e-02 1.590530e+00 0.000000e+00  -1.562278e-02 1.621431e+00 0.000000e+00  -1.562271e-02 1.648942e+00 0.000000e+00  -1.562264e-02 1.672883e+00 0.000000e+00  -1.562256e-02 1.693076e+00 0.000000e+00  -1.562249e-02 1.709346e+00 0.000000e+00  -1.562241e-02 1.721527e+00 0.000000e+00  -1.562234e-02 1.729455e+00 0.000000e+00  -1.562226e-02 1.732974e+00 0.000000e+00  -1.562219e-02 1.731934e+00 0.000000e+00  -1.562211e-02 1.726194e+00 0.000000e+00  -1.562203e-02 1.715621e+00 0.000000e+00  -1.562195e-02 1.700088e+00 0.000000e+00  -1.562187e-02 1.679480e+00 0.000000e+00  -1.562179e-02 1.653693e+00 0.000000e+00  -1.562171e-02 1.622631e+00 0.000000e+00  -1.562163e-02 1.586210e+00 0.000000e+00  -1.562154e-02 1.544359e+00 0.000000e+00  -1.562145e-02 1.497017e+00 0.000000e+00  -1.562136e-02 1.444139e+00 0.000000e+00  -1.562127e-02 1.385692e+00 0.000000e+00  -1.562117e-02 1.321655e+00 0.000000e+00  -1.562107e-02 1.252024e+00 0.000000e+00  -1.562097e-02 1.176810e+00 0.000000e+00  -1.562086e-02 1.096037e+00 0.000000e+00  -1.562075e-02 1.009748e+00 0.000000e+00  -1.562062e-02 9.179996e-01 0.000000e+00  -1.562049e-02 8.208661e-01 0.000000e+00  -1.562035e-02 7.184386e-01 0.000000e+00  -1.562019e-02 6.108254e-01 0.000000e+00  -1.562001e-02 4.981521e-01 0.000000e+00  -1.561980e-02 3.805623e-01 0.000000e+00  -1.561952e-02 2.582177e-01 0.000000e+00  -1.561913e-02 1.312978e-01 0.000000e+00  -1.561848e-02 0.000000e+00 0.000000e+00  -3.124146e-02 0.000000e+00 0.000000e+00  -3.124059e-02 4.985940e-02 0.000000e+00  -3.123996e-02 1.011657e-01 0.000000e+00  -3.123946e-02 1.538264e-01 0.000000e+00  -3.123905e-02 2.077426e-01 0.000000e+00  -3.123870e-02 2.628092e-01 0.000000e+00  -3.123839e-02 3.189143e-01 0.000000e+00  -3.123811e-02 3.759398e-01 0.000000e+00  -3.123785e-02 4.337615e-01 0.000000e+00  -3.123761e-02 4.922487e-01 0.000000e+00  -3.123739e-02 5.512653e-01 0.000000e+00  -3.123717e-02 6.106688e-01 0.000000e+00  -3.123696e-02 6.703117e-01 0.000000e+00  -3.123677e-02 7.300408e-01 0.000000e+00  -3.123657e-02 7.896979e-01 0.000000e+00  -3.123639e-02 8.491201e-01 0.000000e+00  -3.123621e-02 9.081397e-01 0.000000e+00  -3.123603e-02 9.665849e-01 0.000000e+00  -3.123586e-02 1.024280e+00 0.000000e+00  -3.123569e-02 1.081046e+00 0.000000e+00  -3.123553e-02 1.136700e+00 0.000000e+00  -3.123536e-02 1.191057e+00 0.000000e+00  -3.123520e-02 1.243930e+00 0.000000e+00  -3.123505e-02 1.295128e+00 0.000000e+00  -3.123489e-02 1.344461e+00 0.000000e+00  -3.123474e-02 1.391736e+00 0.000000e+00  -3.123459e-02 1.436761e+00 0.000000e+00  -3.123444e-02 1.479344e+00 0.000000e+00  -3.123429e-02 1.519291e+00 0.000000e+00  -3.123414e-02 1.556412e+00 0.000000e+00  -3.123399e-02 1.590516e+00 0.000000e+00  -3.123384e-02 1.621417e+00 0.000000e+00  -3.123369e-02 1.648928e+00 0.000000e+00  -3.123355e-02 1.672869e+00 0.000000e+00  -3.123340e-02 1.693062e+00 0.000000e+00  -3.123325e-02 1.709334e+00 0.000000e+00  -3.123310e-02 1.721515e+00 0.000000e+00  -3.123295e-02 1.729443e+00 0.000000e+00  -3.123280e-02 1.732963e+00 0.000000e+00  -3.123265e-02 1.731924e+00 0.000000e+00  -3.123250e-02 1.726184e+00 0.000000e+00  -3.123234e-02 1.715611e+00 0.000000e+00  -3.123218e-02 1.700079e+00 0.000000e+00  -3.123202e-02 1.679473e+00 0.000000e+00  -3.123186e-02 1.653686e+00 0.000000e+00  -3.123170e-02 1.622625e+00 0.000000e+00  -3.123153e-02 1.586205e+00 0.000000e+00  -3.123136e-02 1.544354e+00 0.000000e+00  -3.123118e-02 1.497014e+00 0.000000e+00  -3.123100e-02 1.444137e+00 0.000000e+00  -3.123081e-02 1.385690e+00 0.000000e+00  -3.123062e-02 1.321655e+00 0.000000e+00  -3.123042e-02 1.252025e+00 0.000000e+00  -3.123022e-02 1.176812e+00 0.000000e+00  -3.123000e-02 1.096040e+00 0.000000e+00  -3.122977e-02 1.009752e+00 0.000000e+00  -3.122953e-02 9.180049e-01 0.000000e+00  -3.122927e-02 8.208725e-01 0.000000e+00  -3.122899e-02 7.184459e-01 0.000000e+00  -3.122869e-02 6.108334e-01 0.000000e+00  -3.122834e-02 4.981607e-01 0.000000e+00  -3.122793e-02 3.805710e-01 0.000000e+00  -3.122743e-02 2.582256e-01 0.000000e+00  -3.122680e-02 1.313031e-01 0.000000e+00  -3.122593e-02 0.000000e+00 0.000000e+00  -4.683174e-02 0.000000e+00 0.000000e+00  -4.683076e-02 4.985726e-02 0.000000e+00  -4.682997e-02 1.011618e-01 0.000000e+00  -4.682930e-02 1.538211e-01 0.000000e+00  -4.682874e-02 2.077363e-01 0.000000e+00  -4.682824e-02 2.628020e-01 0.000000e+00  -4.682779e-02 3.189063e-01 0.000000e+00  -4.682738e-02 3.759312e-01 0.000000e+00  -4.682699e-02 4.337522e-01 0.000000e+00  -4.682664e-02 4.922389e-01 0.000000e+00  -4.682630e-02 5.512549e-01 0.000000e+00  -4.682598e-02 6.106580e-01 0.000000e+00  -4.682567e-02 6.703004e-01 0.000000e+00  -4.682537e-02 7.300291e-01 0.000000e+00  -4.682509e-02 7.896858e-01 0.000000e+00  -4.682481e-02 8.491076e-01 0.000000e+00  -4.682454e-02 9.081269e-01 0.000000e+00  -4.682428e-02 9.665718e-01 0.000000e+00  -4.682402e-02 1.024267e+00 0.000000e+00  -4.682377e-02 1.081032e+00 0.000000e+00  -4.682352e-02 1.136686e+00 0.000000e+00  -4.682328e-02 1.191043e+00 0.000000e+00  -4.682304e-02 1.243916e+00 0.000000e+00  -4.682280e-02 1.295114e+00 0.000000e+00  -4.682257e-02 1.344447e+00 0.000000e+00  -4.682234e-02 1.391722e+00 0.000000e+00  -4.682211e-02 1.436747e+00 0.000000e+00  -4.682189e-02 1.479330e+00 0.000000e+00  -4.682166e-02 1.519277e+00 0.000000e+00  -4.682144e-02 1.556398e+00 0.000000e+00  -4.682122e-02 1.590502e+00 0.000000e+00  -4.682100e-02 1.621403e+00 0.000000e+00  -4.682078e-02 1.648915e+00 0.000000e+00  -4.682055e-02 1.672857e+00 0.000000e+00  -4.682033e-02 1.693050e+00 0.000000e+00  -4.682011e-02 1.709321e+00 0.000000e+00  -4.681989e-02 1.721503e+00 0.000000e+00  -4.681967e-02 1.729432e+00 0.000000e+00  -4.681944e-02 1.732952e+00 0.000000e+00  -4.681921e-02 1.731914e+00 0.000000e+00  -4.681898e-02 1.726175e+00 0.000000e+00  -4.681875e-02 1.715602e+00 0.000000e+00  -4.681851e-02 1.700071e+00 0.000000e+00  -4.681828e-02 1.679465e+00 0.000000e+00  -4.681803e-02 1.653679e+00 0.000000e+00  -4.681779e-02 1.622619e+00 0.000000e+00  -4.681753e-02 1.586200e+00 0.000000e+00  -4.681728e-02 1.544350e+00 0.000000e+00  -4.681701e-02 1.497011e+00 0.000000e+00  -4.681674e-02 1.444135e+00 0.000000e+00  -4.681646e-02 1.385689e+00 0.000000e+00  -4.681618e-02 1.321654e+00 0.000000e+00  -4.681588e-02 1.252026e+00 0.000000e+00  -4.681557e-02 1.176813e+00 0.000000e+00  -4.681525e-02 1.096043e+00 0.000000e+00  -4.681491e-02 1.009756e+00 0.000000e+00  -4.681456e-02 9.180092e-01 0.000000e+00  -4.681418e-02 8.208776e-01 0.000000e+00  -4.681377e-02 7.184517e-01 0.000000e+00  -4.681332e-02 6.108397e-01 0.000000e+00  -4.681282e-02 4.981672e-01 0.000000e+00  -4.681225e-02 3.805773e-01 0.000000e+00  -4.681158e-02 2.582308e-01 0.000000e+00  -4.681079e-02 1.313063e-01 0.000000e+00  -4.680981e-02 0.000000e+00 0.000000e+00  -6.238522e-02 0.000000e+00 0.000000e+00  -6.238417e-02 4.985559e-02 0.000000e+00  -6.238326e-02 1.011586e-01 0.000000e+00  -6.238247e-02 1.538167e-01 0.000000e+00  -6.238176e-02 2.077308e-01 0.000000e+00  -6.238113e-02 2.627955e-01 0.000000e+00  -6.238055e-02 3.188991e-01 0.000000e+00  -6.238002e-02 3.759232e-01 0.000000e+00  -6.237952e-02 4.337436e-01 0.000000e+00  -6.237906e-02 4.922298e-01 0.000000e+00  -6.237861e-02 5.512452e-01 0.000000e+00  -6.237819e-02 6.106478e-01 0.000000e+00  -6.237778e-02 6.702898e-01 0.000000e+00  -6.237739e-02 7.300180e-01 0.000000e+00  -6.237701e-02 7.896744e-01 0.000000e+00  -6.237664e-02 8.490958e-01 0.000000e+00  -6.237628e-02 9.081147e-01 0.000000e+00  -6.237593e-02 9.665594e-01 0.000000e+00  -6.237559e-02 1.024254e+00 0.000000e+00  -6.237525e-02 1.081019e+00 0.000000e+00  -6.237492e-02 1.136673e+00 0.000000e+00  -6.237460e-02 1.191030e+00 0.000000e+00  -6.237428e-02 1.243902e+00 0.000000e+00  -6.237397e-02 1.295100e+00 0.000000e+00  -6.237366e-02 1.344433e+00 0.000000e+00  -6.237335e-02 1.391708e+00 0.000000e+00  -6.237305e-02 1.436734e+00 0.000000e+00  -6.237275e-02 1.479316e+00 0.000000e+00  -6.237245e-02 1.519263e+00 0.000000e+00  -6.237216e-02 1.556384e+00 0.000000e+00  -6.237186e-02 1.590489e+00 0.000000e+00  -6.237157e-02 1.621390e+00 0.000000e+00  -6.237127e-02 1.648902e+00 0.000000e+00  -6.237098e-02 1.672844e+00 0.000000e+00  -6.237068e-02 1.693038e+00 0.000000e+00  -6.237039e-02 1.709310e+00 0.000000e+00  -6.237009e-02 1.721492e+00 0.000000e+00  -6.236980e-02 1.729421e+00 0.000000e+00  -6.236950e-02 1.732942e+00 0.000000e+00  -6.236919e-02 1.731904e+00 0.000000e+00  -6.236889e-02 1.726166e+00 0.000000e+00  -6.236858e-02 1.715594e+00 0.000000e+00  -6.236826e-02 1.700063e+00 0.000000e+00  -6.236795e-02 1.679458e+00 0.000000e+00  -6.236762e-02 1.653673e+00 0.000000e+00  -6.236729e-02 1.622613e+00 0.000000e+00  -6.236696e-02 1.586195e+00 0.000000e+00  -6.236662e-02 1.544346e+00 0.000000e+00  -6.236627e-02 1.497008e+00 0.000000e+00  -6.236591e-02 1.444133e+00 0.000000e+00  -6.236554e-02 1.385688e+00 0.000000e+00  -6.236516e-02 1.321654e+00 0.000000e+00  -6.236477e-02 1.252026e+00 0.000000e+00  -6.236436e-02 1.176814e+00 0.000000e+00  -6.236394e-02 1.096045e+00 0.000000e+00  -6.236349e-02 1.009758e+00 0.000000e+00  -6.236302e-02 9.180127e-01 0.000000e+00  -6.236252e-02 8.208817e-01 0.000000e+00  -6.236199e-02 7.184563e-01 0.000000e+00  -6.236142e-02 6.108446e-01 0.000000e+00  -6.236078e-02 4.981720e-01 0.000000e+00  -6.236008e-02 3.805817e-01 0.000000e+00  -6.235929e-02 2.582343e-01 0.000000e+00  -6.235838e-02 1.313083e-01 0.000000e+00  -6.235733e-02 0.000000e+00 0.000000e+00  -7.788876e-02 0.000000e+00 0.000000e+00  -7.788765e-02 4.985419e-02 0.000000e+00  -7.788665e-02 1.011559e-01 0.000000e+00  -7.788575e-02 1.538128e-01 0.000000e+00  -7.788493e-02 2.077259e-01 0.000000e+00  -7.788418e-02 2.627897e-01 0.000000e+00  -7.788349e-02 3.188925e-01 0.000000e+00  -7.788284e-02 3.759159e-01 0.000000e+00  -7.788224e-02 4.337357e-01 0.000000e+00  -7.788166e-02 4.922212e-01 0.000000e+00  -7.788111e-02 5.512361e-01 0.000000e+00  -7.788059e-02 6.106382e-01 0.000000e+00  -7.788008e-02 6.702797e-01 0.000000e+00  -7.787960e-02 7.300075e-01 0.000000e+00  -7.787913e-02 7.896635e-01 0.000000e+00  -7.787867e-02 8.490846e-01 0.000000e+00  -7.787822e-02 9.081032e-01 0.000000e+00  -7.787779e-02 9.665475e-01 0.000000e+00  -7.787736e-02 1.024242e+00 0.000000e+00  -7.787694e-02 1.081007e+00 0.000000e+00  -7.787653e-02 1.136661e+00 0.000000e+00  -7.787613e-02 1.191017e+00 0.000000e+00  -7.787574e-02 1.243889e+00 0.000000e+00  -7.787534e-02 1.295087e+00 0.000000e+00  -7.787496e-02 1.344420e+00 0.000000e+00  -7.787458e-02 1.391695e+00 0.000000e+00  -7.787420e-02 1.436721e+00 0.000000e+00  -7.787383e-02 1.479303e+00 0.000000e+00  -7.787345e-02 1.519251e+00 0.000000e+00  -7.787309e-02 1.556372e+00 0.000000e+00  -7.787272e-02 1.590477e+00 0.000000e+00  -7.787235e-02 1.621378e+00 0.000000e+00  -7.787198e-02 1.648890e+00 0.000000e+00  -7.787162e-02 1.672832e+00 0.000000e+00  -7.787125e-02 1.693026e+00 0.000000e+00  -7.787088e-02 1.709299e+00 0.000000e+00  -7.787051e-02 1.721481e+00 0.000000e+00  -7.787014e-02 1.729411e+00 0.000000e+00  -7.786977e-02 1.732932e+00 0.000000e+00  -7.786939e-02 1.731895e+00 0.000000e+00  -7.786901e-02 1.726157e+00 0.000000e+00  -7.786862e-02 1.715586e+00 0.000000e+00  -7.786823e-02 1.700056e+00 0.000000e+00  -7.786784e-02 1.679451e+00 0.000000e+00  -7.786743e-02 1.653667e+00 0.000000e+00  -7.786702e-02 1.622608e+00 0.000000e+00  -7.786661e-02 1.586190e+00 0.000000e+00  -7.786618e-02 1.544342e+00 0.000000e+00  -7.786575e-02 1.497004e+00 0.000000e+00  -7.786530e-02 1.444130e+00 0.000000e+00  -7.786484e-02 1.385686e+00 0.000000e+00  -7.786437e-02 1.321653e+00 0.000000e+00  -7.786388e-02 1.252026e+00 0.000000e+00  -7.786338e-02 1.176815e+00 0.000000e+00  -7.786285e-02 1.096046e+00 0.000000e+00  -7.786231e-02 1.009760e+00 0.000000e+00  -7.786173e-02 9.180153e-01 0.000000e+00  -7.786112e-02 8.208848e-01 0.000000e+00  -7.786048e-02 7.184597e-01 0.000000e+00  -7.785979e-02 6.108482e-01 0.000000e+00  -7.785904e-02 4.981756e-01 0.000000e+00  -7.785822e-02 3.805849e-01 0.000000e+00  -7.785732e-02 2.582367e-01 0.000000e+00  -7.785632e-02 1.313096e-01 0.000000e+00  -7.785521e-02 0.000000e+00 0.000000e+00  -9.332866e-02 0.000000e+00 0.000000e+00  -9.332749e-02 4.985300e-02 0.000000e+00  -9.332641e-02 1.011536e-01 0.000000e+00  -9.332542e-02 1.538094e-01 0.000000e+00  -9.332450e-02 2.077215e-01 0.000000e+00  -9.332365e-02 2.627845e-01 0.000000e+00  -9.332285e-02 3.188864e-01 0.000000e+00  -9.332210e-02 3.759092e-01 0.000000e+00  -9.332139e-02 4.337283e-01 0.000000e+00  -9.332071e-02 4.922132e-01 0.000000e+00  -9.332006e-02 5.512276e-01 0.000000e+00  -9.331944e-02 6.106292e-01 0.000000e+00  -9.331884e-02 6.702702e-01 0.000000e+00  -9.331827e-02 7.299976e-01 0.000000e+00  -9.331770e-02 7.896532e-01 0.000000e+00  -9.331716e-02 8.490739e-01 0.000000e+00  -9.331663e-02 9.080922e-01 0.000000e+00  -9.331611e-02 9.665363e-01 0.000000e+00  -9.331560e-02 1.024230e+00 0.000000e+00  -9.331510e-02 1.080995e+00 0.000000e+00  -9.331461e-02 1.136649e+00 0.000000e+00  -9.331413e-02 1.191005e+00 0.000000e+00  -9.331366e-02 1.243877e+00 0.000000e+00  -9.331319e-02 1.295075e+00 0.000000e+00  -9.331273e-02 1.344408e+00 0.000000e+00  -9.331227e-02 1.391683e+00 0.000000e+00  -9.331182e-02 1.436708e+00 0.000000e+00  -9.331137e-02 1.479291e+00 0.000000e+00  -9.331093e-02 1.519238e+00 0.000000e+00  -9.331049e-02 1.556359e+00 0.000000e+00  -9.331005e-02 1.590465e+00 0.000000e+00  -9.330961e-02 1.621366e+00 0.000000e+00  -9.330917e-02 1.648879e+00 0.000000e+00  -9.330873e-02 1.672821e+00 0.000000e+00  -9.330829e-02 1.693015e+00 0.000000e+00  -9.330785e-02 1.709288e+00 0.000000e+00  -9.330741e-02 1.721471e+00 0.000000e+00  -9.330696e-02 1.729401e+00 0.000000e+00  -9.330652e-02 1.732923e+00 0.000000e+00  -9.330606e-02 1.731886e+00 0.000000e+00  -9.330561e-02 1.726149e+00 0.000000e+00  -9.330515e-02 1.715578e+00 0.000000e+00  -9.330468e-02 1.700048e+00 0.000000e+00  -9.330421e-02 1.679444e+00 0.000000e+00  -9.330373e-02 1.653661e+00 0.000000e+00  -9.330324e-02 1.622602e+00 0.000000e+00  -9.330274e-02 1.586185e+00 0.000000e+00  -9.330223e-02 1.544338e+00 0.000000e+00  -9.330171e-02 1.497001e+00 0.000000e+00  -9.330118e-02 1.444128e+00 0.000000e+00  -9.330063e-02 1.385684e+00 0.000000e+00  -9.330007e-02 1.321652e+00 0.000000e+00  -9.329949e-02 1.252025e+00 0.000000e+00  -9.329889e-02 1.176815e+00 0.000000e+00  -9.329827e-02 1.096047e+00 0.000000e+00  -9.329763e-02 1.009762e+00 0.000000e+00  -9.329695e-02 9.180172e-01 0.000000e+00  -9.329624e-02 8.208871e-01 0.000000e+00  -9.329549e-02 7.184623e-01 0.000000e+00  -9.329469e-02 6.108509e-01 0.000000e+00  -9.329384e-02 4.981782e-01 0.000000e+00  -9.329292e-02 3.805871e-01 0.000000e+00  -9.329193e-02 2.582384e-01 0.000000e+00  -9.329085e-02 1.313105e-01 0.000000e+00  -9.328968e-02 0.000000e+00 0.000000e+00  -1.086906e-01 0.000000e+00 0.000000e+00  -1.086894e-01 4.985194e-02 0.000000e+00  -1.086883e-01 1.011515e-01 0.000000e+00  -1.086872e-01 1.538064e-01 0.000000e+00  -1.086862e-01 2.077176e-01 0.000000e+00  -1.086852e-01 2.627797e-01 0.000000e+00  -1.086843e-01 3.188809e-01 0.000000e+00  -1.086835e-01 3.759029e-01 0.000000e+00  -1.086827e-01 4.337214e-01 0.000000e+00  -1.086819e-01 4.922058e-01 0.000000e+00  -1.086812e-01 5.512196e-01 0.000000e+00  -1.086805e-01 6.106207e-01 0.000000e+00  -1.086798e-01 6.702613e-01 0.000000e+00  -1.086791e-01 7.299883e-01 0.000000e+00  -1.086784e-01 7.896434e-01 0.000000e+00  -1.086778e-01 8.490638e-01 0.000000e+00  -1.086772e-01 9.080818e-01 0.000000e+00  -1.086766e-01 9.665256e-01 0.000000e+00  -1.086760e-01 1.024219e+00 0.000000e+00  -1.086754e-01 1.080984e+00 0.000000e+00  -1.086749e-01 1.136637e+00 0.000000e+00  -1.086743e-01 1.190994e+00 0.000000e+00  -1.086738e-01 1.243866e+00 0.000000e+00  -1.086732e-01 1.295063e+00 0.000000e+00  -1.086727e-01 1.344396e+00 0.000000e+00  -1.086721e-01 1.391671e+00 0.000000e+00  -1.086716e-01 1.436696e+00 0.000000e+00  -1.086711e-01 1.479279e+00 0.000000e+00  -1.086706e-01 1.519227e+00 0.000000e+00  -1.086701e-01 1.556348e+00 0.000000e+00  -1.086696e-01 1.590453e+00 0.000000e+00  -1.086690e-01 1.621355e+00 0.000000e+