<?xml version="1.0"?>
<VTKFile type="UnstructuredGrid"  version="0.1"  >
<UnstructuredGrid>
<Piece  NumberOfPoints="81" NumberOfCells="128">
<Points>
<DataArray  type="Float32"  NumberOfComponents="3"  format="ascii">0 0 0  0.125 0 0  0.25 0 0  0.375 0 0  0.5 0 0  0.625 0 0  0.75 0 0  0.875 0 0  1 0 0  0 0.125 0  0.125 0.125 0  0.25 0.125 0  0.375 0.125 0  0.5 0.125 0  0.625 0.125 0  0.75 0.125 0  0.875 0.125 0  1 0.125 0  0 0.25 0  0.125 0.25 0  0.25 0.25 0  0.375 0.25 0  0.5 0.25 0  0.625 0.25 0  0.75 0.25 0  0.875 0.25 0  1 0.25 0  0 0.375 0  0.125 0.375 0  0.25 0.375 0  0.375 0.375 0  0.5 0.375 0  0.625 0.375 0  0.75 0.375 0  0.875 0.375 0  1 0.375 0  0 0.5 0  0.125 0.5 0  0.25 0.5 0  0.375 0.5 0  0.5 0.5 0  0.625 0.5 0  0.75 0.5 0  0.875 0.5 0  1 0.5 0  0 0.625 0  0.125 0.625 0  0.25 0.625 0  0.375 0.625 0  0.5 0.625 0  0.625 0.625 0  0.75 0.625 0  0.875 0.625 0  1 0.625 0  0 0.75 0  0.125 0.75 0  0.25 0.75 0  0.375 0.75 0  0.5 0.75 0  0.625 0.75 0  0.75 0.75 0  0.875 0.75 0  1 0.75 0  0 0.875 0  0.125 0.875 0  0.25 0.875 0  0.375 0.875 0  0.5 0.875 0  0.625 0.875 0  0.75 0.875 0  0.875 0.875 0  1 0.875 0  0 1 0  0.125 1 0  0.25 1 0  0.375 1 0  0.5 1 0  0.625 1 0  0.75 1 0  0.875 1 0  1 1 0  </DataArray>
</Points>
<Cells>
<DataArray  type="UInt32"  Name="connectivity"  format="ascii">0 1 10  0 9 10  1 2 11  1 10 11  2 3 12  2 11 12  3 4 13  3 12 13  4 5 14  4 13 14  5 6 15  5 14 15  6 7 16  6 15 16  7 8 17  7 16 17  9 10 19  9 18 19  10 11 20  10 19 20  11 12 21  11 20 21  12 13 22  12 21 22  13 14 23  13 22 23  14 15 24  14 23 24  15 16 25  15 24 25  16 17 26  16 25 26  18 19 28  18 27 28  19 20 29  19 28 29  20 21 30  20 29 30  21 22 31  21 30 31  22 23 32  22 31 32  23 24 33  23 32 33  24 25 34  24 33 34  25 26 35  25 34 35  27 28 37  27 36 37  28 29 38  28 37 38  29 30 39  29 38 39  30 31 40  30 39 40  31 32 41  31 40 41  32 33 42  32 41 42  33 34 43  33 42 43  34 35 44  34 43 44  36 37 46  36 45 46  37 38 47  37 46 47  38 39 48  38 47 48  39 40 49  39 48 49  40 41 50  40 49 50  41 42 51  41 50 51  42 43 52  42 51 52  43 44 53  43 52 53  45 46 55  45 54 55  46 47 56  46 55 56  47 48 57  47 56 57  48 49 58  48 57 58  49 50 59  49 58 59  50 51 60  50 59 60  51 52 61  51 60 61  52 53 62  52 61 62  54 55 64  54 63 64  55 56 65  55 64 65  56 57 66  56 65 66  57 58 67  57 66 67  58 59 68  58 67 68  59 60 69  59 68 69  60 61 70  60 69 70  61 62 71  61 70 71  63 64 73  63 72 73  64 65 74  64 73 74  65 66 75  65 74 75  66 67 76  66 75 76  67 68 77  67 76 77  68 69 78  68 77 78  69 70 79  69 78 79  70 71 80  70 79 80  </DataArray>
<DataArray  type="UInt32"  Name="offsets"  format="ascii">3 6 9 12 15 18 21 24 27 30 33 36 39 42 45 48 51 54 57 60 63 66 69 72 75 78 81 84 87 90 93 96 99 102 105 108 111 114 117 120 123 126 129 132 135 138 141 144 147 150 153 156 159 162 165 168 171 174 177 180 183 186 189 192 195 198 201 204 207 210 213 216 219 222 225 228 231 234 237 240 243 246 249 252 255 258 261 264 267 270 273 276 279 282 285 288 291 294 297 300 303 306 309 312 315 318 321 324 327 330 333 336 339 342 345 348 351 354 357 360 363 366 369 372 375 378 381 384 </DataArray>
<DataArray  type="UInt8"  Name="types"  format="ascii">5 5 5 5 5 5 5 5 5 5 5 5 5 5 5 5 5 5 5 5 5 5 5 5 5 5 5 5 5 5 5 5 5 5 5 5 5 5 5 5 5 5 5 5 5 5 5 5 5 5 5 5 5 5 5 5 5 5 5 5 5 5 5 5 5 5 5 5 5 5 5 5 5 5 5 5 5 5 5 5 5 5 5 5 5 5 5 5 5 5 5 5 5 5 5 5 5 5 5 5 5 5 5 5 5 5 5 5 5 5 5 5 5 5 5 5 5 5 5 5 5 5 5 5 5 5 5 5 </DataArray>
</Cells>
<PointData  Vectors="u"> 
<DataArray  type="Float32"  Name="u"  NumberOfComponents="3" format="ascii">0.000000e+00 0.000000e+00 0.000000e+00  0.000000e+00 4.423562e-01 0.000000e+00  0.000000e+00 9.217377e-01 0.000000e+00  0.000000e+00 1.359966e+00 0.000000e+00  0.000000e+00 1.663269e+00 0.000000e+00  0.000000e+00 1.736609e+00 0.000000e+00  0.000000e+00 1.501797e+00 0.000000e+00  0.000000e+00 9.176711e-01 0.000000e+00  0.000000e+00 0.000000e+00 0.000000e+00  -1.252701e-01 0.000000e+00 0.000000e+00  -1.247559e-01 4.384356e-01 0.000000e+00  -1.243703e-01 9.158976e-01 0.000000e+00  -1.240473e-01 1.353394e+00 0.000000e+00  -1.237521e-01 1.657163e+00 0.000000e+00  -1.234569e-01 1.732211e+00 0.000000e+00  -1.231342e-01 1.500111e+00 0.000000e+00  -1.227493e-01 9.186828e-01 0.000000e+00  -1.222369e-01 0.000000e+00 0.000000e+00  -2.430904e-01 0.000000e+00 0.000000e+00  -2.422593e-01 4.360386e-01 0.000000e+00  -2.415600e-01 9.119410e-01 0.000000e+00  -2.409540e-01 1.348769e+00 0.000000e+00  -2.403958e-01 1.652766e+00 0.000000e+00  -2.398376e-01 1.728853e+00 0.000000e+00  -2.392319e-01 1.498305e+00 0.000000e+00  -2.385335e-01 9.182956e-01 0.000000e+00  -2.377044e-01 0.000000e+00 0.000000e+00  -3.441962e-01 0.000000e+00 0.000000e+00  -3.430720e-01 4.343627e-01 0.000000e+00  -3.421085e-01 9.090372e-01 0.000000e+00  -3.412743e-01 1.345268e+00 0.000000e+00  -3.405095e-01 1.649337e+00 0.000000e+00  -3.397447e-01 1.726078e+00 0.000000e+00  -3.389106e-01 1.496539e+00 0.000000e+00  -3.379478e-01 9.175490e-01 0.000000e+00  -3.368252e-01 0.000000e+00 0.000000e+00  -4.160706e-01 0.000000e+00 0.000000e+00  -4.146385e-01 4.329846e-01 0.000000e+00  -4.134572e-01 9.066002e-01 0.000000e+00  -4.124674e-01 1.342277e+00 0.000000e+00  -4.115774e-01 1.646347e+00 0.000000e+00  -4.106872e-01 1.723575e+00 0.000000e+00  -4.096973e-01 1.494833e+00 0.000000e+00  -4.085161e-01 9.167271e-01 0.000000e+00  -4.070850e-01 0.000000e+00 0.000000e+00  -4.422461e-01 0.000000e+00 0.000000e+00  -4.404990e-01 4.316065e-01 0.000000e+00  -4.391773e-01 9.041633e-01 0.000000e+00  -4.381390e-01 1.339286e+00 0.000000e+00  -4.372374e-01 1.643357e+00 0.000000e+00  -4.363356e-01 1.721072e+00 0.000000e+00  -4.352969e-01 1.493128e+00 0.000000e+00  -4.339747e-01 9.159052e-01 0.000000e+00  -4.322275e-01 0.000000e+00 0.000000e+00  -4.013527e-01 0.000000e+00 0.000000e+00  -3.993580e-01 4.299307e-01 0.000000e+00  -3.980581e-01 9.012602e-01 0.000000e+00  -3.971342e-01 1.335785e+00 0.000000e+00  -3.963716e-01 1.639928e+00 0.000000e+00  -3.956090e-01 1.718297e+00 0.000000e+00  -3.946846e-01 1.491362e+00 0.000000e+00  -3.933838e-01 9.151580e-01 0.000000e+00  -3.913875e-01 0.000000e+00 0.000000e+00  -2.658406e-01 0.000000e+00 0.000000e+00  -2.639785e-01 4.275357e-01 0.000000e+00  -2.630391e-01 8.973060e-01 0.000000e+00  -2.624585e-01 1.331162e+00 0.000000e+00  -2.620084e-01 1.635531e+00 0.000000e+00  -2.615583e-01 1.714938e+00 0.000000e+00  -2.609776e-01 1.489553e+00 0.000000e+00  -2.600376e-01 9.147686e-01 0.000000e+00  -2.581726e-01 0.000000e+00 0.000000e+00  0.000000e+00 0.000000e+00 0.000000e+00  0.000000e+00 4.236244e-01 0.000000e+00  0.000000e+00 8.914729e-01 0.000000e+00  0.000000e+00 1.324592e+00 0.000000e+00  0.000000e+00 1.629421e+00 0.000000e+00  0.000000e+00 1.710533e+00 0.000000e+00  0.000000e+00 1.487859e+00 0.000000e+00  0.000000e+00 9.157744e-01 0.000000e+00  0.000000e+00 0.000000e+00 0.000000e+00  </DataArray> 
</PointData> 
</Piece>
</UnstructuredGrid>
</VTKFile>