<?xml version="1.0"?>
<VTKFile type="UnstructuredGrid"  version="0.1"  >
<UnstructuredGrid>
<Piece  NumberOfPoints="81" NumberOfCells="128">
<Points>
<DataArray  type="Float32"  NumberOfComponents="3"  format="ascii">0 0 0  0.125 0 0  0.25 0 0  0.375 0 0  0.5 0 0  0.625 0 0  0.75 0 0  0.875 0 0  1 0 0  0 0.125 0  0.125 0.125 0  0.25 0.125 0  0.375 0.125 0  0.5 0.125 0  0.625 0.125 0  0.75 0.125 0  0.875 0.125 0  1 0.125 0  0 0.25 0  0.125 0.25 0  0.25 0.25 0  0.375 0.25 0  0.5 0.25 0  0.625 0.25 0  0.75 0.25 0  0.875 0.25 0  1 0.25 0  0 0.375 0  0.125 0.375 0  0.25 0.375 0  0.375 0.375 0  0.5 0.375 0  0.625 0.375 0  0.75 0.375 0  0.875 0.375 0  1 0.375 0  0 0.5 0  0.125 0.5 0  0.25 0.5 0  0.375 0.5 0  0.5 0.5 0  0.625 0.5 0  0.75 0.5 0  0.875 0.5 0  1 0.5 0  0 0.625 0  0.125 0.625 0  0.25 0.625 0  0.375 0.625 0  0.5 0.625 0  0.625 0.625 0  0.75 0.625 0  0.875 0.625 0  1 0.625 0  0 0.75 0  0.125 0.75 0  0.25 0.75 0  0.375 0.75 0  0.5 0.75 0  0.625 0.75 0  0.75 0.75 0  0.875 0.75 0  1 0.75 0  0 0.875 0  0.125 0.875 0  0.25 0.875 0  0.375 0.875 0  0.5 0.875 0  0.625 0.875 0  0.75 0.875 0  0.875 0.875 0  1 0.875 0  0 1 0  0.125 1 0  0.25 1 0  0.375 1 0  0.5 1 0  0.625 1 0  0.75 1 0  0.875 1 0  1 1 0  </DataArray>
</Points>
<Cells>
<DataArray  type="UInt32"  Name="connectivity"  format="ascii">0 1 10  0 9 10  1 2 11  1 10 11  2 3 12  2 11 12  3 4 13  3 12 13  4 5 14  4 13 14  5 6 15  5 14 15  6 7 16  6 15 16  7 8 17  7 16 17  9 10 19  9 18 19  10 11 20  10 19 20  11 12 21  11 20 21  12 13 22  12 21 22  13 14 23  13 22 23  14 15 24  14 23 24  15 16 25  15 24 25  16 17 26  16 25 26  18 19 28  18 27 28  19 20 29  19 28 29  20 21 30  20 29 30  21 22 31  21 30 31  22 23 32  22 31 32  23 24 33  23 32 33  24 25 34  24 33 34  25 26 35  25 34 35  27 28 37  27 36 37  28 29 38  28 37 38  29 30 39  29 38 39  30 31 40  30 39 40  31 32 41  31 40 41  32 33 42  32 41 42  33 34 43  33 42 43  34 35 44  34 43 44  36 37 46  36 45 46  37 38 47  37 46 47  38 39 48  38 47 48  39 40 49  39 48 49  40 41 50  40 49 50  41 42 51  41 50 51  42 43 52  42 51 52  43 44 53  43 52 53  45 46 55  45 54 55  46 47 56  46 55 56  47 48 57  47 56 57  48 49 58  48 57 58  49 50 59  49 58 59  50 51 60  50 59 60  51 52 61  51 60 61  52 53 62  52 61 62  54 55 64  54 63 64  55 56 65  55 64 65  56 57 66  56 65 66  57 58 67  57 66 67  58 59 68  58 67 68  59 60 69  59 68 69  60 61 70  60 69 70  61 62 71  61 70 71  63 64 73  63 72 73  64 65 74  64 73 74  65 66 75  65 74 75  66 67 76  66 75 76  67 68 77  67 76 77  68 69 78  68 77 78  69 70 79  69 78 79  70 71 80  70 79 80  </DataArray>
<DataArray  type="UInt32"  Name="offsets"  format="ascii">3 6 9 12 15 18 21 24 27 30 33 36 39 42 45 48 51 54 57 60 63 66 69 72 75 78 81 84 87 90 93 96 99 102 105 108 111 114 117 120 123 126 129 132 135 138 141 144 147 150 153 156 159 162 165 168 171 174 177 180 183 186 189 192 195 198 201 204 207 210 213 216 219 222 225 228 231 234 237 240 243 246 249 252 255 258 261 264 267 270 273 276 279 282 285 288 291 294 297 300 303 306 309 312 315 318 321 324 327 330 333 336 339 342 345 348 351 354 357 360 363 366 369 372 375 378 381 384 </DataArray>
<DataArray  type="UInt8"  Name="types"  format="ascii">5 5 5 5 5 5 5 5 5 5 5 5 5 5 5 5 5 5 5 5 5 5 5 5 5 5 5 5 5 5 5 5 5 5 5 5 5 5 5 5 5 5 5 5 5 5 5 5 5 5 5 5 5 5 5 5 5 5 5 5 5 5 5 5 5 5 5 5 5 5 5 5 5 5 5 5 5 5 5 5 5 5 5 5 5 5 5 5 5 5 5 5 5 5 5 5 5 5 5 5 5 5 5 5 5 5 5 5 5 5 5 5 5 5 5 5 5 5 5 5 5 5 5 5 5 5 5 5 </DataArray>
</Cells>
<PointData  Vectors="u"> 
<DataArray  type="Float32"  Name="u"  NumberOfComponents="3" format="ascii">0.000000e+00 0.000000e+00 0.000000e+00  0.000000e+00 4.332576e-01 0.000000e+00  0.000000e+00 9.074454e-01 0.000000e+00  0.000000e+00 1.343699e+00 0.000000e+00  0.000000e+00 1.648239e+00 0.000000e+00  0.000000e+00 1.725714e+00 0.000000e+00  0.000000e+00 1.496884e+00 0.000000e+00  0.000000e+00 9.182628e-01 0.000000e+00  0.000000e+00 0.000000e+00 0.000000e+00  -1.238915e-01 0.000000e+00 0.000000e+00  -1.239404e-01 4.336602e-01 0.000000e+00  -1.239378e-01 9.079789e-01 0.000000e+00  -1.239367e-01 1.344288e+00 0.000000e+00  -1.239359e-01 1.648784e+00 0.000000e+00  -1.239351e-01 1.726100e+00 0.000000e+00  -1.239340e-01 1.496997e+00 0.000000e+00  -1.239314e-01 9.180253e-01 0.000000e+00  -1.239803e-01 0.000000e+00 0.000000e+00  -2.406883e-01 0.000000e+00 0.000000e+00  -2.407561e-01 4.336327e-01 0.000000e+00  -2.407550e-01 9.079561e-01 0.000000e+00  -2.407536e-01 1.344265e+00 0.000000e+00  -2.407522e-01 1.648762e+00 0.000000e+00  -2.407507e-01 1.726084e+00 0.000000e+00  -2.407494e-01 1.496999e+00 0.000000e+00  -2.407483e-01 9.180675e-01 0.000000e+00  -2.408160e-01 0.000000e+00 0.000000e+00  -3.409254e-01 0.000000e+00 0.000000e+00  -3.410151e-01 4.336203e-01 0.000000e+00  -3.410142e-01 9.079390e-01 0.000000e+00  -3.410125e-01 1.344247e+00 0.000000e+00  -3.410105e-01 1.648747e+00 0.000000e+00  -3.410084e-01 1.726075e+00 0.000000e+00  -3.410067e-01 1.497000e+00 0.000000e+00  -3.410058e-01 9.180766e-01 0.000000e+00  -3.410955e-01 0.000000e+00 0.000000e+00  -4.120670e-01 0.000000e+00 0.000000e+00  -4.121833e-01 4.336118e-01 0.000000e+00  -4.121818e-01 9.079256e-01 0.000000e+00  -4.121793e-01 1.344232e+00 0.000000e+00  -4.121763e-01 1.648734e+00 0.000000e+00  -4.121734e-01 1.726067e+00 0.000000e+00  -4.121708e-01 1.496998e+00 0.000000e+00  -4.121693e-01 9.180784e-01 0.000000e+00  -4.122856e-01 0.000000e+00 0.000000e+00  -4.377280e-01 0.000000e+00 0.000000e+00  -4.378765e-01 4.336034e-01 0.000000e+00  -4.378732e-01 9.079122e-01 0.000000e+00  -4.378690e-01 1.344218e+00 0.000000e+00  -4.378650e-01 1.648722e+00 0.000000e+00  -4.378610e-01 1.726060e+00 0.000000e+00  -4.378568e-01 1.496996e+00 0.000000e+00  -4.378535e-01 9.180803e-01 0.000000e+00  -4.380019e-01 0.000000e+00 0.000000e+00  -3.967641e-01 0.000000e+00 0.000000e+00  -3.969502e-01 4.335909e-01 0.000000e+00  -3.969420e-01 9.078951e-01 0.000000e+00  -3.969356e-01 1.344200e+00 0.000000e+00  -3.969309e-01 1.648706e+00 0.000000e+00  -3.969261e-01 1.726051e+00 0.000000e+00  -3.969197e-01 1.496997e+00 0.000000e+00  -3.969115e-01 9.180894e-01 0.000000e+00  -3.970975e-01 0.000000e+00 0.000000e+00  -2.621771e-01 0.000000e+00 0.000000e+00  -2.624005e-01 4.335634e-01 0.000000e+00  -2.623790e-01 9.078723e-01 0.000000e+00  -2.623720e-01 1.344177e+00 0.000000e+00  -2.623684e-01 1.648685e+00 0.000000e+00  -2.623647e-01 1.726035e+00 0.000000e+00  -2.623577e-01 1.496999e+00 0.000000e+00  -2.623363e-01 9.181316e-01 0.000000e+00  -2.625596e-01 0.000000e+00 0.000000e+00  0.000000e+00 0.000000e+00 0.000000e+00  0.000000e+00 4.339660e-01 0.000000e+00  0.000000e+00 9.084058e-01 0.000000e+00  0.000000e+00 1.344766e+00 0.000000e+00  0.000000e+00 1.649230e+00 0.000000e+00  0.000000e+00 1.726421e+00 0.000000e+00  0.000000e+00 1.497113e+00 0.000000e+00  0.000000e+00 9.178942e-01 0.000000e+00  0.000000e+00 0.000000e+00 0.000000e+00  </DataArray> 
</PointData> 
</Piece>
</UnstructuredGrid>
</VTKFile>