<?xml version="1.0"?>
<VTKFile type="UnstructuredGrid"  version="0.1"  >
<UnstructuredGrid>
<Piece  NumberOfPoints="1089" NumberOfCells="2048">
<Points>
<DataArray  type="Float32"  NumberOfComponents="3"  format="ascii">0 0 0  0.03125 0 0  0.0625 0 0  0.09375 0 0  0.125 0 0  0.15625 0 0  0.1875 0 0  0.21875 0 0  0.25 0 0  0.28125 0 0  0.3125 0 0  0.34375 0 0  0.375 0 0  0.40625 0 0  0.4375 0 0  0.46875 0 0  0.5 0 0  0.53125 0 0  0.5625 0 0  0.59375 0 0  0.625 0 0  0.65625 0 0  0.6875 0 0  0.71875 0 0  0.75 0 0  0.78125 0 0  0.8125 0 0  0.84375 0 0  0.875 0 0  0.90625 0 0  0.9375 0 0  0.96875 0 0  1 0 0  0 0.03125 0  0.03125 0.03125 0  0.0625 0.03125 0  0.09375 0.03125 0  0.125 0.03125 0  0.15625 0.03125 0  0.1875 0.03125 0  0.21875 0.03125 0  0.25 0.03125 0  0.28125 0.03125 0  0.3125 0.03125 0  0.34375 0.03125 0  0.375 0.03125 0  0.40625 0.03125 0  0.4375 0.03125 0  0.46875 0.03125 0  0.5 0.03125 0  0.53125 0.03125 0  0.5625 0.03125 0  0.59375 0.03125 0  0.625 0.03125 0  0.65625 0.03125 0  0.6875 0.03125 0  0.71875 0.03125 0  0.75 0.03125 0  0.78125 0.03125 0  0.8125 0.03125 0  0.84375 0.03125 0  0.875 0.03125 0  0.90625 0.03125 0  0.9375 0.03125 0  0.96875 0.03125 0  1 0.03125 0  0 0.0625 0  0.03125 0.0625 0  0.0625 0.0625 0  0.09375 0.0625 0  0.125 0.0625 0  0.15625 0.0625 0  0.1875 0.0625 0  0.21875 0.0625 0  0.25 0.0625 0  0.28125 0.0625 0  0.3125 0.0625 0  0.34375 0.0625 0  0.375 0.0625 0  0.40625 0.0625 0  0.4375 0.0625 0  0.46875 0.0625 0  0.5 0.0625 0  0.53125 0.0625 0  0.5625 0.0625 0  0.59375 0.0625 0  0.625 0.0625 0  0.65625 0.0625 0  0.6875 0.0625 0  0.71875 0.0625 0  0.75 0.0625 0  0.78125 0.0625 0  0.8125 0.0625 0  0.84375 0.0625 0  0.875 0.0625 0  0.90625 0.0625 0  0.9375 0.0625 0  0.96875 0.0625 0  1 0.0625 0  0 0.09375 0  0.03125 0.09375 0  0.0625 0.09375 0  0.09375 0.09375 0  0.125 0.09375 0  0.15625 0.09375 0  0.1875 0.09375 0  0.21875 0.09375 0  0.25 0.09375 0  0.28125 0.09375 0  0.3125 0.09375 0  0.34375 0.09375 0  0.375 0.09375 0  0.40625 0.09375 0  0.4375 0.09375 0  0.46875 0.09375 0  0.5 0.09375 0  0.53125 0.09375 0  0.5625 0.09375 0  0.59375 0.09375 0  0.625 0.09375 0  0.65625 0.09375 0  0.6875 0.09375 0  0.71875 0.09375 0  0.75 0.09375 0  0.78125 0.09375 0  0.8125 0.09375 0  0.84375 0.09375 0  0.875 0.09375 0  0.90625 0.09375 0  0.9375 0.09375 0  0.96875 0.09375 0  1 0.09375 0  0 0.125 0  0.03125 0.125 0  0.0625 0.125 0  0.09375 0.125 0  0.125 0.125 0  0.15625 0.125 0  0.1875 0.125 0  0.21875 0.125 0  0.25 0.125 0  0.28125 0.125 0  0.3125 0.125 0  0.34375 0.125 0  0.375 0.125 0  0.40625 0.125 0  0.4375 0.125 0  0.46875 0.125 0  0.5 0.125 0  0.53125 0.125 0  0.5625 0.125 0  0.59375 0.125 0  0.625 0.125 0  0.65625 0.125 0  0.6875 0.125 0  0.71875 0.125 0  0.75 0.125 0  0.78125 0.125 0  0.8125 0.125 0  0.84375 0.125 0  0.875 0.125 0  0.90625 0.125 0  0.9375 0.125 0  0.96875 0.125 0  1 0.125 0  0 0.15625 0  0.03125 0.15625 0  0.0625 0.15625 0  0.09375 0.15625 0  0.125 0.15625 0  0.15625 0.15625 0  0.1875 0.15625 0  0.21875 0.15625 0  0.25 0.15625 0  0.28125 0.15625 0  0.3125 0.15625 0  0.34375 0.15625 0  0.375 0.15625 0  0.40625 0.15625 0  0.4375 0.15625 0  0.46875 0.15625 0  0.5 0.15625 0  0.53125 0.15625 0  0.5625 0.15625 0  0.59375 0.15625 0  0.625 0.15625 0  0.65625 0.15625 0  0.6875 0.15625 0  0.71875 0.15625 0  0.75 0.15625 0  0.78125 0.15625 0  0.8125 0.15625 0  0.84375 0.15625 0  0.875 0.15625 0  0.90625 0.15625 0  0.9375 0.15625 0  0.96875 0.15625 0  1 0.15625 0  0 0.1875 0  0.03125 0.1875 0  0.0625 0.1875 0  0.09375 0.1875 0  0.125 0.1875 0  0.15625 0.1875 0  0.1875 0.1875 0  0.21875 0.1875 0  0.25 0.1875 0  0.28125 0.1875 0  0.3125 0.1875 0  0.34375 0.1875 0  0.375 0.1875 0  0.40625 0.1875 0  0.4375 0.1875 0  0.46875 0.1875 0  0.5 0.1875 0  0.53125 0.1875 0  0.5625 0.1875 0  0.59375 0.1875 0  0.625 0.1875 0  0.65625 0.1875 0  0.6875 0.1875 0  0.71875 0.1875 0  0.75 0.1875 0  0.78125 0.1875 0  0.8125 0.1875 0  0.84375 0.1875 0  0.875 0.1875 0  0.90625 0.1875 0  0.9375 0.1875 0  0.96875 0.1875 0  1 0.1875 0  0 0.21875 0  0.03125 0.21875 0  0.0625 0.21875 0  0.09375 0.21875 0  0.125 0.21875 0  0.15625 0.21875 0  0.1875 0.21875 0  0.21875 0.21875 0  0.25 0.21875 0  0.28125 0.21875 0  0.3125 0.21875 0  0.34375 0.21875 0  0.375 0.21875 0  0.40625 0.21875 0  0.4375 0.21875 0  0.46875 0.21875 0  0.5 0.21875 0  0.53125 0.21875 0  0.5625 0.21875 0  0.59375 0.21875 0  0.625 0.21875 0  0.65625 0.21875 0  0.6875 0.21875 0  0.71875 0.21875 0  0.75 0.21875 0  0.78125 0.21875 0  0.8125 0.21875 0  0.84375 0.21875 0  0.875 0.21875 0  0.90625 0.21875 0  0.9375 0.21875 0  0.96875 0.21875 0  1 0.21875 0  0 0.25 0  0.03125 0.25 0  0.0625 0.25 0  0.09375 0.25 0  0.125 0.25 0  0.15625 0.25 0  0.1875 0.25 0  0.21875 0.25 0  0.25 0.25 0  0.28125 0.25 0  0.3125 0.25 0  0.34375 0.25 0  0.375 0.25 0  0.40625 0.25 0  0.4375 0.25 0  0.46875 0.25 0  0.5 0.25 0  0.53125 0.25 0  0.5625 0.25 0  0.59375 0.25 0  0.625 0.25 0  0.65625 0.25 0  0.6875 0.25 0  0.71875 0.25 0  0.75 0.25 0  0.78125 0.25 0  0.8125 0.25 0  0.84375 0.25 0  0.875 0.25 0  0.90625 0.25 0  0.9375 0.25 0  0.96875 0.25 0  1 0.25 0  0 0.28125 0  0.03125 0.28125 0  0.0625 0.28125 0  0.09375 0.28125 0  0.125 0.28125 0  0.15625 0.28125 0  0.1875 0.28125 0  0.21875 0.28125 0  0.25 0.28125 0  0.28125 0.28125 0  0.3125 0.28125 0  0.34375 0.28125 0  0.375 0.28125 0  0.40625 0.28125 0  0.4375 0.28125 0  0.46875 0.28125 0  0.5 0.28125 0  0.53125 0.28125 0  0.5625 0.28125 0  0.59375 0.28125 0  0.625 0.28125 0  0.65625 0.28125 0  0.6875 0.28125 0  0.71875 0.28125 0  0.75 0.28125 0  0.78125 0.28125 0  0.8125 0.28125 0  0.84375 0.28125 0  0.875 0.28125 0  0.90625 0.28125 0  0.9375 0.28125 0  0.96875 0.28125 0  1 0.28125 0  0 0.3125 0  0.03125 0.3125 0  0.0625 0.3125 0  0.09375 0.3125 0  0.125 0.3125 0  0.15625 0.3125 0  0.1875 0.3125 0  0.21875 0.3125 0  0.25 0.3125 0  0.28125 0.3125 0  0.3125 0.3125 0  0.34375 0.3125 0  0.375 0.3125 0  0.40625 0.3125 0  0.4375 0.3125 0  0.46875 0.3125 0  0.5 0.3125 0  0.53125 0.3125 0  0.5625 0.3125 0  0.59375 0.3125 0  0.625 0.3125 0  0.65625 0.3125 0  0.6875 0.3125 0  0.71875 0.3125 0  0.75 0.3125 0  0.78125 0.3125 0  0.8125 0.3125 0  0.84375 0.3125 0  0.875 0.3125 0  0.90625 0.3125 0  0.9375 0.3125 0  0.96875 0.3125 0  1 0.3125 0  0 0.34375 0  0.03125 0.34375 0  0.0625 0.34375 0  0.09375 0.34375 0  0.125 0.34375 0  0.15625 0.34375 0  0.1875 0.34375 0  0.21875 0.34375 0  0.25 0.34375 0  0.28125 0.34375 0  0.3125 0.34375 0  0.34375 0.34375 0  0.375 0.34375 0  0.40625 0.34375 0  0.4375 0.34375 0  0.46875 0.34375 0  0.5 0.34375 0  0.53125 0.34375 0  0.5625 0.34375 0  0.59375 0.34375 0  0.625 0.34375 0  0.65625 0.34375 0  0.6875 0.34375 0  0.71875 0.34375 0  0.75 0.34375 0  0.78125 0.34375 0  0.8125 0.34375 0  0.84375 0.34375 0  0.875 0.34375 0  0.90625 0.34375 0  0.9375 0.34375 0  0.96875 0.34375 0  1 0.34375 0  0 0.375 0  0.03125 0.375 0  0.0625 0.375 0  0.09375 0.375 0  0.125 0.375 0  0.15625 0.375 0  0.1875 0.375 0  0.21875 0.375 0  0.25 0.375 0  0.28125 0.375 0  0.3125 0.375 0  0.34375 0.375 0  0.375 0.375 0  0.40625 0.375 0  0.4375 0.375 0  0.46875 0.375 0  0.5 0.375 0  0.53125 0.375 0  0.5625 0.375 0  0.59375 0.375 0  0.625 0.375 0  0.65625 0.375 0  0.6875 0.375 0  0.71875 0.375 0  0.75 0.375 0  0.78125 0.375 0  0.8125 0.375 0  0.84375 0.375 0  0.875 0.375 0  0.90625 0.375 0  0.9375 0.375 0  0.96875 0.375 0  1 0.375 0  0 0.40625 0  0.03125 0.40625 0  0.0625 0.40625 0  0.09375 0.40625 0  0.125 0.40625 0  0.15625 0.40625 0  0.1875 0.40625 0  0.21875 0.40625 0  0.25 0.40625 0  0.28125 0.40625 0  0.3125 0.40625 0  0.34375 0.40625 0  0.375 0.40625 0  0.40625 0.40625 0  0.4375 0.40625 0  0.46875 0.40625 0  0.5 0.40625 0  0.53125 0.40625 0  0.5625 0.40625 0  0.59375 0.40625 0  0.625 0.40625 0  0.65625 0.40625 0  0.6875 0.40625 0  0.71875 0.40625 0  0.75 0.40625 0  0.78125 0.40625 0  0.8125 0.40625 0  0.84375 0.40625 0  0.875 0.40625 0  0.90625 0.40625 0  0.9375 0.40625 0  0.96875 0.40625 0  1 0.40625 0  0 0.4375 0  0.03125 0.4375 0  0.0625 0.4375 0  0.09375 0.4375 0  0.125 0.4375 0  0.15625 0.4375 0  0.1875 0.4375 0  0.21875 0.4375 0  0.25 0.4375 0  0.28125 0.4375 0  0.3125 0.4375 0  0.34375 0.4375 0  0.375 0.4375 0  0.40625 0.4375 0  0.4375 0.4375 0  0.46875 0.4375 0  0.5 0.4375 0  0.53125 0.4375 0  0.5625 0.4375 0  0.59375 0.4375 0  0.625 0.4375 0  0.65625 0.4375 0  0.6875 0.4375 0  0.71875 0.4375 0  0.75 0.4375 0  0.78125 0.4375 0  0.8125 0.4375 0  0.84375 0.4375 0  0.875 0.4375 0  0.90625 0.4375 0  0.9375 0.4375 0  0.96875 0.4375 0  1 0.4375 0  0 0.46875 0  0.03125 0.46875 0  0.0625 0.46875 0  0.09375 0.46875 0  0.125 0.46875 0  0.15625 0.46875 0  0.1875 0.46875 0  0.21875 0.46875 0  0.25 0.46875 0  0.28125 0.46875 0  0.3125 0.46875 0  0.34375 0.46875 0  0.375 0.46875 0  0.40625 0.46875 0  0.4375 0.46875 0  0.46875 0.46875 0  0.5 0.46875 0  0.53125 0.46875 0  0.5625 0.46875 0  0.59375 0.46875 0  0.625 0.46875 0  0.65625 0.46875 0  0.6875 0.46875 0  0.71875 0.46875 0  0.75 0.46875 0  0.78125 0.46875 0  0.8125 0.46875 0  0.84375 0.46875 0  0.875 0.46875 0  0.90625 0.46875 0  0.9375 0.46875 0  0.96875 0.46875 0  1 0.46875 0  0 0.5 0  0.03125 0.5 0  0.0625 0.5 0  0.09375 0.5 0  0.125 0.5 0  0.15625 0.5 0  0.1875 0.5 0  0.21875 0.5 0  0.25 0.5 0  0.28125 0.5 0  0.3125 0.5 0  0.34375 0.5 0  0.375 0.5 0  0.40625 0.5 0  0.4375 0.5 0  0.46875 0.5 0  0.5 0.5 0  0.53125 0.5 0  0.5625 0.5 0  0.59375 0.5 0  0.625 0.5 0  0.65625 0.5 0  0.6875 0.5 0  0.71875 0.5 0  0.75 0.5 0  0.78125 0.5 0  0.8125 0.5 0  0.84375 0.5 0  0.875 0.5 0  0.90625 0.5 0  0.9375 0.5 0  0.96875 0.5 0  1 0.5 0  0 0.53125 0  0.03125 0.53125 0  0.0625 0.53125 0  0.09375 0.53125 0  0.125 0.53125 0  0.15625 0.53125 0  0.1875 0.53125 0  0.21875 0.53125 0  0.25 0.53125 0  0.28125 0.53125 0  0.3125 0.53125 0  0.34375 0.53125 0  0.375 0.53125 0  0.40625 0.53125 0  0.4375 0.53125 0  0.46875 0.53125 0  0.5 0.53125 0  0.53125 0.53125 0  0.5625 0.53125 0  0.59375 0.53125 0  0.625 0.53125 0  0.65625 0.53125 0  0.6875 0.53125 0  0.71875 0.53125 0  0.75 0.53125 0  0.78125 0.531
[...]
<PointData  Vectors="u"> 
<DataArray  type="Float32"  Name="u"  NumberOfComponents="3" format="ascii">0.000000e+00 0.000000e+00 0.000000e+00  0.000000e+00 1.013194e-01 0.000000e+00  0.000000e+00 2.080128e-01 0.000000e+00  0.000000e+00 3.192826e-01 0.000000e+00  0.000000e+00 4.342155e-01 0.000000e+00  0.000000e+00 5.517946e-01 0.000000e+00  0.000000e+00 6.709066e-01 0.000000e+00  0.000000e+00 7.903492e-01 0.000000e+00  0.000000e+00 9.088381e-01 0.000000e+00  0.000000e+00 1.025016e+00 0.000000e+00  0.000000e+00 1.137465e+00 0.000000e+00  0.000000e+00 1.244713e+00 0.000000e+00  0.000000e+00 1.345254e+00 0.000000e+00  0.000000e+00 1.437554e+00 0.000000e+00  0.000000e+00 1.520073e+00 0.000000e+00  0.000000e+00 1.591279e+00 0.000000e+00  0.000000e+00 1.649662e+00 0.000000e+00  0.000000e+00 1.693758e+00 0.000000e+00  0.000000e+00 1.722163e+00 0.000000e+00  0.000000e+00 1.733556e+00 0.000000e+00  0.000000e+00 1.726716e+00 0.000000e+00  0.000000e+00 1.700542e+00 0.000000e+00  0.000000e+00 1.654076e+00 0.000000e+00  0.000000e+00 1.586517e+00 0.000000e+00  0.000000e+00 1.497247e+00 0.000000e+00  0.000000e+00 1.385844e+00 0.000000e+00  0.000000e+00 1.252101e+00 0.000000e+00  0.000000e+00 1.096044e+00 0.000000e+00  0.000000e+00 9.179457e-01 0.000000e+00  0.000000e+00 7.183381e-01 0.000000e+00  0.000000e+00 4.980279e-01 0.000000e+00  0.000000e+00 2.581104e-01 0.000000e+00  0.000000e+00 0.000000e+00 0.000000e+00  -3.126198e-02 0.000000e+00 0.000000e+00  -3.125643e-02 1.012761e-01 0.000000e+00  -3.125291e-02 2.079512e-01 0.000000e+00  -3.125030e-02 3.192094e-01 0.000000e+00  -3.124815e-02 4.341329e-01 0.000000e+00  -3.124628e-02 5.517038e-01 0.000000e+00  -3.124459e-02 6.708086e-01 0.000000e+00  -3.124302e-02 7.902447e-01 0.000000e+00  -3.124156e-02 9.087280e-01 0.000000e+00  -3.124017e-02 1.024902e+00 0.000000e+00  -3.123883e-02 1.137347e+00 0.000000e+00  -3.123755e-02 1.244593e+00 0.000000e+00  -3.123630e-02 1.345132e+00 0.000000e+00  -3.123508e-02 1.437432e+00 0.000000e+00  -3.123388e-02 1.519952e+00 0.000000e+00  -3.123269e-02 1.591160e+00 0.000000e+00  -3.123151e-02 1.649548e+00 0.000000e+00  -3.123034e-02 1.693649e+00 0.000000e+00  -3.122915e-02 1.722062e+00 0.000000e+00  -3.122795e-02 1.733464e+00 0.000000e+00  -3.122673e-02 1.726634e+00 0.000000e+00  -3.122548e-02 1.700472e+00 0.000000e+00  -3.122419e-02 1.654019e+00 0.000000e+00  -3.122286e-02 1.586475e+00 0.000000e+00  -3.122147e-02 1.497221e+00 0.000000e+00  -3.122000e-02 1.385835e+00 0.000000e+00  -3.121844e-02 1.252110e+00 0.000000e+00  -3.121675e-02 1.096072e+00 0.000000e+00  -3.121488e-02 9.179920e-01 0.000000e+00  -3.121273e-02 7.184018e-01 0.000000e+00  -3.121012e-02 4.981042e-01 0.000000e+00  -3.120661e-02 2.581823e-01 0.000000e+00  -3.120106e-02 0.000000e+00 0.000000e+00  -6.242235e-02 0.000000e+00 0.000000e+00  -6.241469e-02 1.012486e-01 0.000000e+00  -6.240880e-02 2.079047e-01 0.000000e+00  -6.240400e-02 3.191492e-01 0.000000e+00  -6.239990e-02 4.340620e-01 0.000000e+00  -6.239625e-02 5.516239e-01 0.000000e+00  -6.239293e-02 6.707210e-01 0.000000e+00  -6.238984e-02 7.901506e-01 0.000000e+00  -6.238693e-02 9.086284e-01 0.000000e+00  -6.238416e-02 1.024798e+00 0.000000e+00  -6.238151e-02 1.137239e+00 0.000000e+00  -6.237895e-02 1.244483e+00 0.000000e+00  -6.237646e-02 1.345020e+00 0.000000e+00  -6.237403e-02 1.437321e+00 0.000000e+00  -6.237164e-02 1.519842e+00 0.000000e+00  -6.236927e-02 1.591053e+00 0.000000e+00  -6.236692e-02 1.649444e+00 0.000000e+00  -6.236457e-02 1.693551e+00 0.000000e+00  -6.236221e-02 1.721971e+00 0.000000e+00  -6.235982e-02 1.733381e+00 0.000000e+00  -6.235739e-02 1.726560e+00 0.000000e+00  -6.235490e-02 1.700409e+00 0.000000e+00  -6.235234e-02 1.653967e+00 0.000000e+00  -6.234968e-02 1.586436e+00 0.000000e+00  -6.234692e-02 1.497196e+00 0.000000e+00  -6.234401e-02 1.385824e+00 0.000000e+00  -6.234092e-02 1.252114e+00 0.000000e+00  -6.233760e-02 1.096090e+00 0.000000e+00  -6.233395e-02 9.180224e-01 0.000000e+00  -6.232985e-02 7.184420e-01 0.000000e+00  -6.232505e-02 4.981475e-01 0.000000e+00  -6.231917e-02 2.582151e-01 0.000000e+00  -6.231150e-02 0.000000e+00 0.000000e+00  -9.338038e-02 0.000000e+00 0.000000e+00  -9.337146e-02 1.012286e-01 0.000000e+00  -9.336388e-02 2.078681e-01 0.000000e+00  -9.335732e-02 3.190991e-01 0.000000e+00  -9.335149e-02 4.340009e-01 0.000000e+00  -9.334621e-02 5.515537e-01 0.000000e+00  -9.334133e-02 6.706431e-01 0.000000e+00  -9.333678e-02 7.900662e-01 0.000000e+00  -9.333247e-02 9.085385e-01 0.000000e+00  -9.332836e-02 1.024703e+00 0.000000e+00  -9.332441e-02 1.137141e+00 0.000000e+00  -9.332060e-02 1.244383e+00 0.000000e+00  -9.331689e-02 1.344919e+00 0.000000e+00  -9.331326e-02 1.437219e+00 0.000000e+00  -9.330970e-02 1.519742e+00 0.000000e+00  -9.330617e-02 1.590955e+00 0.000000e+00  -9.330266e-02 1.649350e+00 0.000000e+00  -9.329916e-02 1.693462e+00 0.000000e+00  -9.329563e-02 1.721887e+00 0.000000e+00  -9.329207e-02 1.733304e+00 0.000000e+00  -9.328844e-02 1.726492e+00 0.000000e+00  -9.328473e-02 1.700350e+00 0.000000e+00  -9.328092e-02 1.653918e+00 0.000000e+00  -9.327697e-02 1.586398e+00 0.000000e+00  -9.327286e-02 1.497170e+00 0.000000e+00  -9.326855e-02 1.385810e+00 0.000000e+00  -9.326399e-02 1.252111e+00 0.000000e+00  -9.325912e-02 1.096098e+00 0.000000e+00  -9.325384e-02 9.180400e-01 0.000000e+00  -9.324802e-02 7.184654e-01 0.000000e+00  -9.324146e-02 4.981713e-01 0.000000e+00  -9.323388e-02 2.582313e-01 0.000000e+00  -9.322496e-02 0.000000e+00 0.000000e+00  -1.240250e-01 0.000000e+00 0.000000e+00  -1.240150e-01 1.012128e-01 0.000000e+00  -1.240061e-01 2.078379e-01 0.000000e+00  -1.239980e-01 3.190566e-01 0.000000e+00  -1.239907e-01 4.339479e-01 0.000000e+00  -1.239839e-01 5.514918e-01 0.000000e+00  -1.239776e-01 6.705736e-01 0.000000e+00  -1.239716e-01 7.899902e-01 0.000000e+00  -1.239660e-01 9.084572e-01 0.000000e+00  -1.239606e-01 1.024618e+00 0.000000e+00  -1.239554e-01 1.137052e+00 0.000000e+00  -1.239503e-01 1.244292e+00 0.000000e+00  -1.239454e-01 1.344827e+00 0.000000e+00  -1.239406e-01 1.437127e+00 0.000000e+00  -1.239359e-01 1.519651e+00 0.000000e+00  -1.239312e-01 1.590866e+00 0.000000e+00  -1.239266e-01 1.649264e+00 0.000000e+00  -1.239220e-01 1.693380e+00 0.000000e+00  -1.239173e-01 1.721810e+00 0.000000e+00  -1.239126e-01 1.733234e+00 0.000000e+00  -1.239078e-01 1.726429e+00 0.000000e+00  -1.239029e-01 1.700295e+00 0.000000e+00  -1.238978e-01 1.653872e+00 0.000000e+00  -1.238926e-01 1.586362e+00 0.000000e+00  -1.238872e-01 1.497143e+00 0.000000e+00  -1.238816e-01 1.385793e+00 0.000000e+00  -1.238756e-01 1.252104e+00 0.000000e+00  -1.238693e-01 1.096099e+00 0.000000e+00  -1.238625e-01 9.180481e-01 0.000000e+00  -1.238552e-01 7.184775e-01 0.000000e+00  -1.238471e-01 4.981836e-01 0.000000e+00  -1.238382e-01 2.582393e-01 0.000000e+00  -1.238283e-01 0.000000e+00 0.000000e+00  -1.542353e-01 0.000000e+00 0.000000e+00  -1.542244e-01 1.011997e-01 0.000000e+00  -1.542143e-01 2.078125e-01 0.000000e+00  -1.542050e-01 3.190201e-01 0.000000e+00  -1.541962e-01 4.339016e-01 0.000000e+00  -1.541881e-01 5.514370e-01 0.000000e+00  -1.541804e-01 6.705115e-01 0.000000e+00  -1.541731e-01 7.899219e-01 0.000000e+00  -1.541662e-01 9.083837e-01 0.000000e+00  -1.541595e-01 1.024540e+00 0.000000e+00  -1.541531e-01 1.136972e+00 0.000000e+00  -1.541469e-01 1.244208e+00 0.000000e+00  -1.541408e-01 1.344743e+00 0.000000e+00  -1.541349e-01 1.437042e+00 0.000000e+00  -1.541290e-01 1.519567e+00 0.000000e+00  -1.541233e-01 1.590784e+00 0.000000e+00  -1.541175e-01 1.649185e+00 0.000000e+00  -1.541118e-01 1.693304e+00 0.000000e+00  -1.541060e-01 1.721740e+00 0.000000e+00  -1.541002e-01 1.733169e+00 0.000000e+00  -1.540942e-01 1.726370e+00 0.000000e+00  -1.540882e-01 1.700243e+00 0.000000e+00  -1.540820e-01 1.653829e+00 0.000000e+00  -1.540755e-01 1.586326e+00 0.000000e+00  -1.540689e-01 1.497116e+00 0.000000e+00  -1.540619e-01 1.385774e+00 0.000000e+00  -1.540546e-01 1.252093e+00 0.000000e+00  -1.540470e-01 1.096095e+00 0.000000e+00  -1.540388e-01 9.180493e-01 0.000000e+00  -1.540301e-01 7.184821e-01 0.000000e+00  -1.540207e-01 4.981890e-01 0.000000e+00  -1.540106e-01 2.582430e-01 0.000000e+00  -1.539997e-01 0.000000e+00 0.000000e+00  -1.838810e-01 0.000000e+00 0.000000e+00  -1.838691e-01 1.011884e-01 0.000000e+00  -1.838579e-01 2.077904e-01 0.000000e+00  -1.838473e-01 3.189881e-01 0.000000e+00  -1.838373e-01 4.338606e-01 0.000000e+00  -1.838279e-01 5.513880e-01 0.000000e+00  -1.838189e-01 6.704556e-01 0.000000e+00  -1.838104e-01 7.898601e-01 0.000000e+00  -1.838022e-01 9.083169e-01 0.000000e+00  -1.837943e-01 1.024469e+00 0.000000e+00  -1.837868e-01 1.136898e+00 0.000000e+00  -1.837794e-01 1.244132e+00 0.000000e+00  -1.837722e-01 1.344665e+00 0.000000e+00  -1.837652e-01 1.436965e+00 0.000000e+00  -1.837583e-01 1.519490e+00 0.000000e+00  -1.837514e-01 1.590708e+00 0.000000e+00  -1.837446e-01 1.649112e+00 0.000000e+00  -1.837378e-01 1.693235e+00 0.000000e+00  -1.837310e-01 1.721674e+00 0.000000e+00  -1.837240e-01 1.733108e+00 0.000000e+00  -1.837170e-01 1.726315e+00 0.000000e+00  -1.837098e-01 1.700195e+00 0.000000e+00  -1.837025e-01 1.653787e+00 0.000000e+00  -1.836949e-01 1.586292e+00 0.000000e+00  -1.836870e-01 1.497088e+00 0.000000e+00  -1.836788e-01 1.385753e+00 0.000000e+00  -1.836703e-01 1.252079e+00 0.000000e+00  -1.836613e-01 1.096087e+00 0.000000e+00  -1.836519e-01 9.180457e-01 0.000000e+00  -1.836419e-01 7.184817e-01 0.000000e+00  -1.836313e-01 4.981901e-01 0.000000e+00  -1.836201e-01 2.582440e-01 0.000000e+00  -1.836083e-01 0.000000e+00 0.000000e+00  -2.128210e-01 0.000000e+00 0.000000e+00  -2.128081e-01 1.011786e-01 0.000000e+00  -2.127958e-01 2.077710e-01 0.000000e+00  -2.127841e-01 3.189597e-01 0.000000e+00  -2.127730e-01 4.338241e-01 0.000000e+00  -2.127623e-01 5.513441e-01 0.000000e+00  -2.127521e-01 6.704052e-01 0.000000e+00  -2.127424e-01 7.898040e-01 0.000000e+00  -2.127330e-01 9.082560e-01 0.000000e+00  -2.127240e-01 1.024404e+00 0.000000e+00  -2.127153e-01 1.136830e+00 0.000000e+00  -2.127068e-01 1.244062e+00 0.000000e+00  -2.126986e-01 1.344594e+00 0.000000e+00  -2.126905e-01 1.436893e+00 0.000000e+00  -2.126826e-01 1.519419e+00 0.000000e+00  -2.126747e-01 1.590639e+00 0.000000e+00  -2.126669e-01 1.649044e+00 0.000000e+00  -2.126590e-01 1.693170e+00 0.000000e+00  -2.126512e-01 1.721613e+00 0.000000e+00  -2.126432e-01 1.733051e+00 0.000000e+00  -2.126351e-01 1.726263e+00 0.000000e+00  -2.126269e-01 1.700149e+00 0.000000e+00  -2.126184e-01 1.653747e+00 0.000000e+00  -2.126097e-01 1.586257e+00 0.000000e+00  -2.126007e-01 1.497060e+00 0.000000e+00  -2.125913e-01 1.385731e+00 0.000000e+00  -2.125816e-01 1.252062e+00 0.000000e+00  -2.125714e-01 1.096076e+00 0.000000e+00  -2.125608e-01 9.180388e-01 0.000000e+00  -2.125496e-01 7.184780e-01 0.000000e+00  -2.125379e-01 4.981885e-01 0.000000e+00  -2.125256e-01 2.582435e-01 0.000000e+00  -2.125127e-01 0.000000e+00 0.000000e+00  -2.409038e-01 0.000000e+00 0.000000e+00  -2.408899e-01 1.011698e-01 0.000000e+00  -2.408765e-01 2.077537e-01 0.000000e+00  -2.408637e-01 3.189343e-01 0.000000e+00  -2.408514e-01 4.337911e-01 0.000000e+00  -2.408396e-01 5.513043e-01 0.000000e+00  -2.408282e-01 6.703593e-01 0.000000e+00  -2.408173e-01 7.897527e-01 0.000000e+00  -2.408069e-01 9.082002e-01 0.000000e+00  -2.407968e-01 1.024345e+00 0.000000e+00  -2.407870e-01 1.136767e+00 0.000000e+00  -2.407775e-01 1.243998e+00 0.000000e+00  -2.407682e-01 1.344528e+00 0.000000e+00  -2.407591e-01 1.436827e+00 0.000000e+00  -2.407502e-01 1.519353e+00 0.000000e+00  -2.407413e-01 1.590574e+00 0.000000e+00  -2.407325e-01 1.648981e+00 0.000000e+00  -2.407237e-01 1.693109e+00 0.000000e+00  -2.407149e-01 1.721556e+00 0.000000e+00  -2.407059e-01 1.732998e+00 0.000000e+00  -2.406968e-01 1.726214e+00 0.000000e+00  -2.406876e-01 1.700104e+00 0.000000e+00  -2.406781e-01 1.653708e+00 0.000000e+00  -2.406683e-01 1.586224e+00 0.000000e+00  -2.406582e-01 1.497032e+00 0.000000e+00  -2.406477e-01 1.385709e+00 0.000000e+00  -2.406368e-01 1.252045e+00 0.000000e+00  -2.406255e-01 1.096063e+00 0.000000e+00  -2.406137e-01 9.180296e-01 0.000000e+00  -2.406013e-01 7.184720e-01 0.000000e+00  -2.405885e-01 4.981851e-01 0.000000e+00  -2.405751e-01 2.582419e-01 0.000000e+00  -2.405613e-01 0.000000e+00 0.000000e+00  -2.679662e-01 0.000000e+00 0.000000e+00  -2.679513e-01 1.011619e-01 0.000000e+00  -2.679368e-01 2.077381e-01 0.000000e+00  -2.679229e-01 3.189112e-01 0.000000e+00  -2.679094e-01 4.337611e-01 0.000000e+00  -2.678965e-01 5.512680e-01 0.000000e+00  -2.678841e-01 6.703172e-01 0.000000e+00  -2.678721e-01 7.897056e-01 0.000000e+00  -2.678605e-01 9.081488e-01 0.000000e+00  -2.678494e-01 1.024290e+00 0.000000e+00  -2.678386e-01 1.136709e+00 0.000000e+00  -2.678281e-01 1.243938e+00 0.000000e+00  -2.678178e-01 1.344467e+00 0.000000e+00  -2.678078e-01 1.436765e+00 0.000000e+00  -2.677979e-01 1.519291e+00 0.000000e+00  -2.677882e-01 1.590513e+00 0.000000e+00  -2.677784e-01 1.648922e+00 0.000000e+00  -2.677687e-01 1.693052e+00 0.000000e+00  -2.677590e-01 1.721502e+00 0.000000e+00  -2.677491e-01 1.732947e+00 0.000000e+00  -2.677391e-01 1.726168e+00 0.000000e+00  -2.677288e-01 1.700062e+00 0.000000e+00  -2.677183e-01 1.653670e+00 0.000000e+00  -2.677075e-01 1.586191e+00 0.000000e+00  -2.676964e-01 1.497004e+00 0.000000e+00  -2.676848e-01 1.385685e+00 0.000000e+00  -2.676728e-01 1.252026e+00 0.000000e+00  -2.676604e-01 1.096048e+00 0.000000e+00  -2.676475e-01 9.180189e-01 0.000000e+00  -2.676340e-01 7.184646e-01 0.000000e+00  -2.676201e-01 4.981805e-01 0.000000e+00  -2.676056e-01 2.582398e-01 0.000000e+00  -2.675907e-01 0.000000e+00 0.000000e+00  -2.938332e-01 0.000000e+00 0.000000e+00  -2.938172e-01 1.011546e-01 0.000000e+00  -2.938016e-01 2.077237e-01 0.000000e+00  -2.937866e-01 3.188901e-01 0.000000e+00  -2.937720e-01 4.337335e-01 0.000000e+00  -2.937580e-01 5.512344e-01 0.000000e+00  -2.937445e-01 6.702783e-01 0.000000e+00  -2.937314e-01 7.896620e-01 0.000000e+00  -2.937189e-01 9.081010e-01 0.000000e+00  -2.937067e-01 1.024239e+00 0.000000e+00  -2.936950e-01 1.136656e+00 0.000000e+00  -2.936835e-01 1.243882e+00 0.000000e+00  -2.936724e-01 1.344410e+00 0.000000e+00  -2.936615e-01 1.436707e+00 0.000000e+00  -2.936507e-01 1.519233e+00 0.000000e+00  -2.936401e-01 1.590456e+00 0.000000e+00  -2.936295e-01 1.648866e+00 0.000000e+00  -2.936190e-01 1.692999e+00 0.000000e+00  -2.936083e-01 1.721450e+00 0.000000e+00  -2.935976e-01 1.732899e+00 0.000000e+00  -2.935867e-01 1.726123e+00 0.000000e+00  -2.935755e-01 1.700021e+00 0.000000e+00  -2.935641e-01 1.653633e+00 0.000000e+00  -2.935523e-01 1.586159e+00 0.000000e+00  -2.935402e-01 1.496976e+00 0.000000e+00  -2.935276e-01 1.385662e+00 0.000000e+00  -2.935146e-01 1.252007e+00 0.000000e+00  -2.935011e-01 1.096033e+00 0.000000e+00  -2.934871e-01 9.180072e-01 0.000000e+00  -2.934725e-01 7.184562e-01 0.000000e+00  -2.934574e-01 4.981751e-01 0.000000e+00  -2.934419e-01 2.582371e-01 0.000000e+00  -2.934259e-01 0.000000e+00 0.000000e+00  -3.183169e-01 0.000000e+00 0.000000e+00  -3.182997e-01 1.011479e-01 0.000000e+00  -3.182830e-01 2.077104e-01 0.000000e+00  -3.182669e-01 3.188705e-01 0.000000e+00  -3.182512e-01 4.337079e-01 0.000000e+00  -3.182361e-01 5.512032e-01 0.000000e+00  -3.182216e-01 6.702420e-01 0.000000e+00  -3.182075e-01 7.896212e-01 0.000000e+00  -3.181940e-01 9.080563e-01 0.000000e+00  -3.181809e-01 1.024191e+00 0.000000e+00  -3.181682e-01 1.136605e+00 0.000000e+00  -3.181560e-01 1.243829e+00 0.000000e+00  -3.181440e-01 1.344355e+00 0.000000e+00  -3.181322e-01 1.436652e+00 0.000000e+00  -3.181207e-01 1.519178e+00 0.000000e+00  -3.181093e-01 1.590401e+00 0.000000e+00  -3.180979e-01 1.648813e+00 0.000000e+00  -3.180865e-01 1.692947e+00 0.000000e+00  -3.180751e-01 1.721401e+00 0.000000e+00  -3.180636e-01 1.732853e+00 0.000000e+00  -3.180518e-01 1.726080e+00 0.000000e+00  -3.180398e-01 1.699982e+00 0.000000e+00  -3.180275e-01 1.653597e+00 0.000000e+00  -3.180149e-01 1.586127e+00 0.000000e+00  -3.180018e-01 1.496948e+00 0.000000e+00  -3.179883e-01 1.385638e+00 0.000000e+00  -3.179742e-01 1.251987e+00 0.000000e+00  -3.179597e-01 1.096017e+00 0.000000e+00  -3.179446e-01 9.179948e-01 0.000000e+00  -3.179289e-01 7.184472e-01 0.000000e+00  -3.179128e-01 4.981692e-01 0.000000e+00  -3.178961e-01 2.582343e-01 0.000000e+00  -3.178789e-01 0.000000e+00 0.000000e+00  -3.412160e-01 0.000000e+00 0.000000e+00  -3.411977e-01 1.011416e-01 0.000000e+00  -3.411798e-01 2.076980e-01 0.000000e+00  -3.411625e-01 3.188520e-01 0.000000e+00  -3.411458e-01 4.336838e-01 0.000000e+00  -3.411296e-01 5.511739e-01 0.000000e+00  -3.411140e-01 6.702078e-01 0.000000e+00  -3.410990e-01 7.895826e-01 0.000000e+00  -3.410846e-01 9.080140e-01 0.000000e+00  -3.410706e-01 1.024145e+00 0.000000e+00  -3.410571e-01 1.136557e+00 0.000000e+00  -3.410440e-01 1.243779e+00 0.000000e+00  -3.410313e-01 1.344304e+00 0.000000e+00  -3.410188e-01 1.436600e+00 0.000000e+00  -3.410065e-01 1.519126e+00 0.000000e+00  -3.409944e-01 1.590349e+00 0.000000e+00  -3.409823e-01 1.648762e+00 0.000000e+00  -3.409702e-01 1.692898e+00 0.000000e+00  -3.409581e-01 1.721354e+00 0.000000e+00  -3.409458e-01 1.732808e+00 0.000000e+00  -3.409333e-01 1.726038e+00 0.000000e+00  -3.409206e-01 1.699943e+00 0.000000e+00  -3.409075e-01 1.653562e+00 0.000000e+00  -3.408940e-01 1.586095e+00 0.000000e+00  -3.408800e-01 1.496921e+00 0.000000e+00  -3.408656e-01 1.385614e+00 0.000000e+00  -3.408506e-01 1.251967e+00 0.000000e+00  -3.408350e-01 1.096000e+00 0.000000e+00  -3.408189e-01 9.179819e-01 0.000000e+00  -3.408021e-01 7.184378e-01 0.000000e+00  -3.407848e-01 4.981630e-01 0.000000e+00  -3.407669e-01 2.582312e-01 0.000000e+00  -3.407486e-01 0.000000e+00 0.000000e+00  -3.623151e-01 0.000000e+00 0.000000e+00  -3.622955e-01 1.011357e-01 0.000000e+00  -3.622765e-01 2.076862e-01 0.000000e+00  -3.622580e-01 3.188346e-01 0.000000e+00  -3.622402e-01 4.336610e-01 0.000000e+00  -3.622230e-01 5.511460e-01 0.000000e+00  -3.622064e-01 6.701753e-01 0.000000e+00  -3.621905e-01 7.895459e-01 0.000000e+00  -3.621752e-01 9.079736e-01 0.000000e+00  -3.621604e-01 1.024102e+00 0.000000e+00  -3.621462e-01 1.136511e+00 0.000000e+00  -3.621323e-01 1.243731e+00 0.000000e+00  -3.621189e-01 1.344255e+00 0.000000e+00  -3.621057e-01 1.436550e+00 0.000000e+00  -3.620928e-01 1.519076e+00 0.000000e+00  -3.620800e-01 1.590300e+00 0.000000e+00  -3.620673e-01 1.648713e+00 0.000000e+00  -3.620546e-01 1.692850e+00 0.000000e+00  -3.620419e-01 1.721309e+00 0.000000e+00  -3.620289e-01 1.732765e+00 0.000000e+00  -3.620158e-01 1.725998e+00 0.000000e+00  -3.620023e-01 1.699905e+00 0.000000e+00  -3.619885e-01 1.653528e+00 0.000000e+00  -3.619742e-01 1.586064e+00 0.000000e+00  -3.619594e-01 1.496893e+00 0.000000e+00  -3.619441e-01 1.385590e+00 0.000000e+00  -3.619282e-01 1.251947e+00 0.000000e+00  -3.619117e-01 1.095984e+00 0.000000e+00  -3.618945e-01 9.179688e-01 0.000000e+00  -3.618767e-01 7.184281e-01 0.000000e+00  -3.618582e-01 4.981566e-01 0.000000e+00  -3.618391e-01 2.582280e-01 0.000000e+00  -3.618195e-01 0.000000e+00 0.000000e+00  -3.813838e-01 0.000000e+00 0.000000e+00  -3.813629e-01 1.011300e-01 0.000000e+00  -3.813426e-01 2.076748e-01 0.000000e+00  -3.813229e-01 3.188178e-01 0.000000e+00  -3.813040e-01 4.336390e-01 0.000000e+00  -3.812858e-01 5.511191e-01 0.000000e+00  -3.812683e-01 6.701439e-01 0.000000e+00  -3.812516e-01 7.895105e-01 0.000000e+00  -3.812354e-01 9.079346e-01 0.000000e+00  -3.812199e-01 1.024060e+00 0.000000e+00  -3.812049e-01 1.136466e+00 0.000000e+00  -3.811905e-01 1.243685e+00 0.000000e+00  -3.811764e-01 1.344207e+00 0.000000e+00  -3.811626e-01 1.436501e+00 0.000000e+00  -3.811492e-01 1.519027e+00 0.000000e+00  -3.811358e-01 1.590251e+00 0.000000e+00  -3.811226e-01 1.648665e+00 0.000000e+00  -3.811094e-01 1.692804e+00 0.000000e+00  -3.810961e-01 1.721264e+00 0.000000e+00  -3.810826e-01 1.732722e+00 0.000000e+00  -3.810688e-01 1.725958e+00 0.000000e+00  -3.810548e-01 1.699868e+00 0.000000e+00  -3.810403e-01 1.653494e+00 0.000000e+00  -3.810253e-01 1.586034e+00 0.000000e+00  -3.81