<?xml version="1.0"?>
<VTKFile type="UnstructuredGrid"  version="0.1"  >
<UnstructuredGrid>
<Piece  NumberOfPoints="833" NumberOfCells="1536">
<Points>
<DataArray  type="Float64"  NumberOfComponents="3"  format="ascii">0 0 0  1 0 0  1 1 0  0 1 0  -1 1 0  -1 0 0  -1 -1 0  0 -1 0  0.5 0.5 0  0 0.5 0  0.5 0 0  0.5 1 0  1 0.5 0  -0.5 0.5 0  -0.5 0 0  -1 0.5 0  -0.5 1 0  -0.5 -0.5 0  0 -0.5 0  -0.5 -1 0  -1 -0.5 0  0.25 0.25 0  0.25 0 0  0 0.25 0  0.5 0.25 0  0.75 0 0  0.75 0.25 0  0.25 0.5 0  0 0.75 0  0.25 0.75 0  0.75 0.5 0  1 0.25 0  0.75 0.75 0  1 0.75 0  0.75 1 0  0.5 0.75 0  0.25 1 0  -0.25 0.25 0  -0.25 0 0  -0.25 0.5 0  -0.25 0.75 0  -0.5 0.25 0  -0.75 0 0  -0.75 0.25 0  -0.5 0.75 0  -0.25 1 0  -0.75 0.75 0  -0.75 1 0  -1 0.75 0  -0.75 0.5 0  -1 0.25 0  -0.25 -0.25 0  0 -0.25 0  -0.5 -0.25 0  -0.75 -0.25 0  -0.25 -0.5 0  0 -0.75 0  -0.25 -0.75 0  -0.75 -0.5 0  -1 -0.25 0  -0.75 -0.75 0  -1 -0.75 0  -0.75 -1 0  -0.5 -0.75 0  -0.25 -1 0  0.125 0.125 0  0 0.125 0  0.125 0 0  0.125 0.25 0  0 0.375 0  0.125 0.375 0  0.25 0.125 0  0.375 0 0  0.375 0.125 0  0.75 0.125 0  0.875 0.125 0  0.875 0 0  0.625 0.25 0  0.625 0.375 0  0.5 0.375 0  0.625 0.125 0  0.625 0 0  0.5 0.125 0  0.125 0.75 0  0.125 0.875 0  0 0.875 0  0.25 0.625 0  0.375 0.625 0  0.375 0.5 0  0.125 0.625 0  0 0.625 0  0.125 0.5 0  0.375 0.375 0  0.25 0.375 0  0.375 0.25 0  0.875 0.25 0  1 0.125 0  0.75 0.375 0  0.625 0.5 0  0.875 0.375 0  1 0.375 0  0.875 0.5 0  0.875 0.875 0  0.875 1 0  1 0.875 0  0.75 0.875 0  0.625 1 0  0.625 0.875 0  0.875 0.75 0  1 0.625 0  0.875 0.625 0  0.25 0.875 0  0.125 1 0  0.375 0.75 0  0.5 0.625 0  0.375 0.875 0  0.375 1 0  0.5 0.875 0  0.625 0.625 0  0.625 0.75 0  0.75 0.625 0  -0.125 0.125 0  -0.125 0 0  -0.125 0.25 0  -0.125 0.375 0  -0.25 0.125 0  -0.375 0 0  -0.375 0.125 0  -0.125 0.75 0  -0.125 0.875 0  -0.125 0.625 0  -0.125 0.5 0  -0.25 0.625 0  -0.375 0.625 0  -0.375 0.5 0  -0.75 0.125 0  -0.875 0.125 0  -0.875 0 0  -0.625 0.25 0  -0.625 0.375 0  -0.5 0.375 0  -0.625 0.125 0  -0.625 0 0  -0.5 0.125 0  -0.25 0.375 0  -0.375 0.375 0  -0.375 0.25 0  -0.25 0.875 0  -0.125 1 0  -0.375 0.75 0  -0.5 0.625 0  -0.375 0.875 0  -0.375 1 0  -0.5 0.875 0  -0.875 0.875 0  -1 0.875 0  -0.875 1 0  -0.875 0.75 0  -1 0.625 0  -0.875 0.625 0  -0.75 0.875 0  -0.625 1 0  -0.625 0.875 0  -0.875 0.25 0  -1 0.125 0  -0.75 0.375 0  -0.625 0.5 0  -0.875 0.375 0  -1 0.375 0  -0.875 0.5 0  -0.625 0.625 0  -0.75 0.625 0  -0.625 0.75 0  -0.125 -0.125 0  0 -0.125 0  -0.25 -0.125 0  -0.375 -0.125 0  -0.125 -0.25 0  0 -0.375 0  -0.125 -0.375 0  -0.75 -0.125 0  -0.875 -0.125 0  -0.625 -0.125 0  -0.5 -0.125 0  -0.625 -0.25 0  -0.625 -0.375 0  -0.5 -0.375 0  -0.125 -0.75 0  -0.125 -0.875 0  0 -0.875 0  -0.25 -0.625 0  -0.375 -0.625 0  -0.375 -0.5 0  -0.125 -0.625 0  0 -0.625 0  -0.125 -0.5 0  -0.375 -0.25 0  -0.375 -0.375 0  -0.25 -0.375 0  -0.875 -0.25 0  -1 -0.125 0  -0.75 -0.375 0  -0.625 -0.5 0  -0.875 -0.375 0  -1 -0.375 0  -0.875 -0.5 0  -0.875 -0.875 0  -0.875 -1 0  -1 -0.875 0  -0.75 -0.875 0  -0.625 -1 0  -0.625 -0.875 0  -0.875 -0.75 0  -1 -0.625 0  -0.875 -0.625 0  -0.25 -0.875 0  -0.125 -1 0  -0.375 -0.75 0  -0.5 -0.625 0  -0.375 -0.875 0  -0.375 -1 0  -0.5 -0.875 0  -0.625 -0.625 0  -0.625 -0.75 0  -0.75 -0.625 0  0.0625 0.0625 0  0.0625 0 0  0 0.0625 0  0.125 0.0625 0  0.1875 0 0  0.1875 0.0625 0  0.0625 0.125 0  0 0.1875 0  0.0625 0.1875 0  0.0625 0.375 0  0.0625 0.4375 0  0 0.4375 0  0.125 0.3125 0  0.1875 0.3125 0  0.1875 0.25 0  0.0625 0.3125 0  0 0.3125 0  0.0625 0.25 0  0.375 0.0625 0  0.4375 0.0625 0  0.4375 0 0  0.3125 0.125 0  0.3125 0.1875 0  0.25 0.1875 0  0.3125 0.0625 0  0.3125 0 0  0.25 0.0625 0  0.1875 0.1875 0  0.1875 0.125 0  0.125 0.1875 0  0.875 0.0625 0  0.9375 0 0  0.9375 0.0625 0  0.8125 0.0625 0  0.8125 0 0  0.75 0.0625 0  0.8125 0.125 0  0.8125 0.1875 0  0.75 0.1875 0  0.5625 0.375 0  0.5 0.4375 0  0.5625 0.4375 0  0.5625 0.3125 0  0.5 0.3125 0  0.5625 0.25 0  0.625 0.3125 0  0.6875 0.3125 0  0.6875 0.25 0  0.5625 0.0625 0  0.5 0.0625 0  0.5625 0 0  0.5625 0.125 0  0.5 0.1875 0  0.5625 0.1875 0  0.625 0.0625 0  0.6875 0 0  0.6875 0.0625 0  0.625 0.1875 0  0.6875 0.125 0  0.6875 0.1875 0  0.0625 0.875 0  0 0.9375 0  0.0625 0.9375 0  0.0625 0.8125 0  0 0.8125 0  0.0625 0.75 0  0.125 0.8125 0  0.1875 0.8125 0  0.1875 0.75 0  0.375 0.5625 0  0.4375 0.5 0  0.4375 0.5625 0  0.3125 0.5625 0  0.3125 0.5 0  0.25 0.5625 0  0.3125 0.625 0  0.3125 0.6875 0  0.25 0.6875 0  0.0625 0.5625 0  0.0625 0.5 0  0 0.5625 0  0.125 0.5625 0  0.1875 0.5 0  0.1875 0.5625 0  0.0625 0.625 0  0 0.6875 0  0.0625 0.6875 0  0.1875 0.625 0  0.125 0.6875 0  0.1875 0.6875 0  0.4375 0.4375 0  0.4375 0.375 0  0.4375 0.3125 0  0.375 0.4375 0  0.3125 0.4375 0  0.125 0.4375 0  0.1875 0.375 0  0.25 0.3125 0  0.1875 0.4375 0  0.25 0.4375 0  0.4375 0.125 0  0.375 0.1875 0  0.3125 0.25 0  0.4375 0.1875 0  0.4375 0.25 0  0.3125 0.3125 0  0.375 0.3125 0  0.3125 0.375 0  0.9375 0.125 0  1 0.0625 0  0.875 0.1875 0  0.8125 0.25 0  0.9375 0.1875 0  1 0.1875 0  0.9375 0.25 0  0.625 0.4375 0  0.5625 0.5 0  0.6875 0.375 0  0.75 0.3125 0  0.6875 0.4375 0  0.6875 0.5 0  0.75 0.4375 0  0.9375 0.4375 0  0.9375 0.5 0  1 0.4375 0  0.875 0.4375 0  0.8125 0.5 0  0.8125 0.4375 0  0.9375 0.375 0  1 0.3125 0  0.9375 0.3125 0  0.8125 0.3125 0  0.8125 0.375 0  0.875 0.3125 0  0.9375 0.9375 0  1 0.9375 0  0.9375 1 0  0.9375 0.875 0  1 0.8125 0  0.9375 0.8125 0  0.875 0.9375 0  0.8125 1 0  0.8125 0.9375 0  0.625 0.9375 0  0.5625 0.9375 0  0.5625 1 0  0.6875 0.875 0  0.6875 0.8125 0  0.75 0.8125 0  0.6875 0.9375 0  0.6875 1 0  0.75 0.9375 0  0.9375 0.625 0  0.9375 0.5625 0  1 0.5625 0  0.875 0.6875 0  0.8125 0.6875 0  0.8125 0.75 0  0.9375 0.6875 0  1 0.6875 0  0.9375 0.75 0  0.8125 0.8125 0  0.875 0.8125 0  0.8125 0.875 0  0.125 0.9375 0  0.0625 1 0  0.1875 0.875 0  0.25 0.8125 0  0.1875 0.9375 0  0.1875 1 0  0.25 0.9375 0  0.4375 0.625 0  0.5 0.5625 0  0.375 0.6875 0  0.3125 0.75 0  0.4375 0.6875 0  0.5 0.6875 0  0.4375 0.75 0  0.4375 0.9375 0  0.5 0.9375 0  0.4375 1 0  0.4375 0.875 0  0.5 0.8125 0  0.4375 0.8125 0  0.375 0.9375 0  0.3125 1 0  0.3125 0.9375 0  0.3125 0.8125 0  0.375 0.8125 0  0.3125 0.875 0  0.5625 0.5625 0  0.625 0.5625 0  0.6875 0.5625 0  0.5625 0.625 0  0.5625 0.6875 0  0.5625 0.875 0  0.625 0.8125 0  0.6875 0.75 0  0.5625 0.8125 0  0.5625 0.75 0  0.875 0.5625 0  0.8125 0.5625 0  0.75 0.5625 0  0.8125 0.625 0  0.75 0.6875 0  0.6875 0.625 0  0.6875 0.6875 0  0.625 0.6875 0  -0.0625 0.0625 0  -0.0625 0 0  -0.0625 0.125 0  -0.0625 0.1875 0  -0.125 0.0625 0  -0.1875 0 0  -0.1875 0.0625 0  -0.0625 0.375 0  -0.0625 0.4375 0  -0.0625 0.3125 0  -0.0625 0.25 0  -0.125 0.3125 0  -0.1875 0.3125 0  -0.1875 0.25 0  -0.375 0.0625 0  -0.4375 0.0625 0  -0.4375 0 0  -0.3125 0.125 0  -0.3125 0.1875 0  -0.25 0.1875 0  -0.3125 0.0625 0  -0.3125 0 0  -0.25 0.0625 0  -0.125 0.1875 0  -0.1875 0.1875 0  -0.1875 0.125 0  -0.0625 0.875 0  -0.0625 0.9375 0  -0.0625 0.8125 0  -0.0625 0.75 0  -0.125 0.8125 0  -0.1875 0.8125 0  -0.1875 0.75 0  -0.0625 0.5625 0  -0.0625 0.5 0  -0.0625 0.625 0  -0.0625 0.6875 0  -0.125 0.5625 0  -0.1875 0.5 0  -0.1875 0.5625 0  -0.375 0.5625 0  -0.4375 0.5 0  -0.4375 0.5625 0  -0.3125 0.5625 0  -0.3125 0.5 0  -0.25 0.5625 0  -0.3125 0.625 0  -0.3125 0.6875 0  -0.25 0.6875 0  -0.125 0.6875 0  -0.1875 0.625 0  -0.1875 0.6875 0  -0.875 0.0625 0  -0.9375 0 0  -0.9375 0.0625 0  -0.8125 0.0625 0  -0.8125 0 0  -0.75 0.0625 0  -0.8125 0.125 0  -0.8125 0.1875 0  -0.75 0.1875 0  -0.5625 0.375 0  -0.5 0.4375 0  -0.5625 0.4375 0  -0.5625 0.3125 0  -0.5 0.3125 0  -0.5625 0.25 0  -0.625 0.3125 0  -0.6875 0.3125 0  -0.6875 0.25 0  -0.5625 0.0625 0  -0.5 0.0625 0  -0.5625 0 0  -0.5625 0.125 0  -0.5 0.1875 0  -0.5625 0.1875 0  -0.625 0.0625 0  -0.6875 0 0  -0.6875 0.0625 0  -0.625 0.1875 0  -0.6875 0.125 0  -0.6875 0.1875 0  -0.125 0.4375 0  -0.1875 0.375 0  -0.25 0.3125 0  -0.1875 0.4375 0  -0.25 0.4375 0  -0.4375 0.4375 0  -0.375 0.4375 0  -0.3125 0.4375 0  -0.4375 0.375 0  -0.4375 0.3125 0  -0.4375 0.125 0  -0.375 0.1875 0  -0.3125 0.25 0  -0.4375 0.1875 0  -0.4375 0.25 0  -0.3125 0.3125 0  -0.3125 0.375 0  -0.375 0.3125 0  -0.125 0.9375 0  -0.0625 1 0  -0.1875 0.875 0  -0.25 0.8125 0  -0.1875 0.9375 0  -0.1875 1 0  -0.25 0.9375 0  -0.4375 0.625 0  -0.5 0.5625 0  -0.375 0.6875 0  -0.3125 0.75 0  -0.4375 0.6875 0  -0.5 0.6875 0  -0.4375 0.75 0  -0.4375 0.9375 0  -0.5 0.9375 0  -0.4375 1 0  -0.4375 0.875 0  -0.5 0.8125 0  -0.4375 0.8125 0  -0.375 0.9375 0  -0.3125 1 0  -0.3125 0.9375 0  -0.3125 0.8125 0  -0.375 0.8125 0  -0.3125 0.875 0  -0.9375 0.9375 0  -0.9375 1 0  -1 0.9375 0  -0.875 0.9375 0  -0.8125 1 0  -0.8125 0.9375 0  -0.9375 0.875 0  -1 0.8125 0  -0.9375 0.8125 0  -0.9375 0.625 0  -0.9375 0.5625 0  -1 0.5625 0  -0.875 0.6875 0  -0.8125 0.6875 0  -0.8125 0.75 0  -0.9375 0.6875 0  -1 0.6875 0  -0.9375 0.75 0  -0.625 0.9375 0  -0.5625 0.9375 0  -0.5625 1 0  -0.6875 0.875 0  -0.6875 0.8125 0  -0.75 0.8125 0  -0.6875 0.9375 0  -0.6875 1 0  -0.75 0.9375 0  -0.8125 0.8125 0  -0.8125 0.875 0  -0.875 0.8125 0  -0.9375 0.125 0  -1 0.0625 0  -0.875 0.1875 0  -0.8125 0.25 0  -0.9375 0.1875 0  -1 0.1875 0  -0.9375 0.25 0  -0.625 0.4375 0  -0.5625 0.5 0  -0.6875 0.375 0  -0.75 0.3125 0  -0.6875 0.4375 0  -0.6875 0.5 0  -0.75 0.4375 0  -0.9375 0.4375 0  -0.9375 0.5 0  -1 0.4375 0  -0.875 0.4375 0  -0.8125 0.5 0  -0.8125 0.4375 0  -0.9375 0.375 0  -1 0.3125 0  -0.9375 0.3125 0  -0.8125 0.3125 0  -0.8125 0.375 0  -0.875 0.3125 0  -0.5625 0.5625 0  -0.5625 0.625 0  -0.5625 0.6875 0  -0.625 0.5625 0  -0.6875 0.5625 0  -0.875 0.5625 0  -0.8125 0.625 0  -0.75 0.6875 0  -0.8125 0.5625 0  -0.75 0.5625 0  -0.5625 0.875 0  -0.5625 0.8125 0  -0.5625 0.75 0  -0.625 0.8125 0  -0.6875 0.75 0  -0.625 0.6875 0  -0.6875 0.6875 0  -0.6875 0.625 0  -0.0625 -0.0625 0  0 -0.0625 0  -0.125 -0.0625 0  -0.1875 -0.0625 0  -0.0625 -0.125 0  0 -0.1875 0  -0.0625 -0.1875 0  -0.375 -0.0625 0  -0.4375 -0.0625 0  -0.3125 -0.0625 0  -0.25 -0.0625 0  -0.3125 -0.125 0  -0.3125 -0.1875 0  -0.25 -0.1875 0  
[...]
<PointData  Vectors="u"> 
<DataArray  type="Float64"  Name="u"  NumberOfComponents="3" format="ascii">0.0000000000000000e+00 0.0000000000000000e+00 0.0000000000000000e+00  0.0000000000000000e+00 0.0000000000000000e+00 0.0000000000000000e+00  0.0000000000000000e+00 0.0000000000000000e+00 0.0000000000000000e+00  0.0000000000000000e+00 -1.7320508075688772e+00 0.0000000000000000e+00  0.0000000000000000e+00 0.0000000000000000e+00 0.0000000000000000e+00  1.7320508075688774e+00 0.0000000000000000e+00 0.0000000000000000e+00  0.0000000000000000e+00 0.0000000000000000e+00 0.0000000000000000e+00  0.0000000000000000e+00 0.0000000000000000e+00 0.0000000000000000e+00  -4.0658065555925665e-01 1.0894295831521938e-01 0.0000000000000000e+00  -3.1498026247371824e-01 0.0000000000000000e+00 0.0000000000000000e+00  0.0000000000000000e+00 6.2996052494743660e-01 0.0000000000000000e+00  0.0000000000000000e+00 -1.0872618141689698e+00 0.0000000000000000e+00  -4.9153410380406493e-01 0.0000000000000000e+00 0.0000000000000000e+00  2.9763769724403749e-01 -2.9763769724403744e-01 0.0000000000000000e+00  0.0000000000000000e+00 3.1498026247371835e-01 0.0000000000000000e+00  1.5787959179730349e+00 0.0000000000000000e+00 0.0000000000000000e+00  0.0000000000000000e+00 -1.5787959179730349e+00 0.0000000000000000e+00  -1.0894295831521911e-01 4.0658065555925693e-01 0.0000000000000000e+00  -6.2996052494743660e-01 0.0000000000000000e+00 0.0000000000000000e+00  0.0000000000000000e+00 4.9153410380406559e-01 0.0000000000000000e+00  1.0872618141689705e+00 0.0000000000000000e+00 0.0000000000000000e+00  -3.3165551002994448e-01 6.8321801002994442e-01 0.0000000000000000e+00  0.0000000000000000e+00 9.9212565748012449e-01 0.0000000000000000e+00  -4.9606282874006213e-01 6.8736481849930131e-01 0.0000000000000000e+00  -2.8112243579152252e-01 4.8483310106755090e-01 0.0000000000000000e+00  0.0000000000000000e+00 3.2102070475364425e-01 0.0000000000000000e+00  -2.8758148386537691e-01 2.5420830107435904e-01 0.0000000000000000e+00  -3.7649767017047364e-01 1.0263233218408863e-01 0.0000000000000000e+00  -1.6051035237682210e-01 -7.9432024416411384e-01 0.0000000000000000e+00  -2.5794967195763846e-01 -6.1896448945307592e-01 0.0000000000000000e+00  -4.4515397421274477e-01 6.6151929572448726e-02 0.0000000000000000e+00  -3.1108724237295959e-01 0.0000000000000000e+00 0.0000000000000000e+00  -3.7364813810544645e-01 -2.2040357872100863e-01 0.0000000000000000e+00  -4.2234630587192129e-01 0.0000000000000000e+00 0.0000000000000000e+00  0.0000000000000000e+00 -5.8846157311336011e-01 0.0000000000000000e+00  -3.2161423468357503e-01 -4.2522986292132353e-01 0.0000000000000000e+00  0.0000000000000000e+00 -1.4793529639740306e+00 0.0000000000000000e+00  -3.5156249999999989e-01 3.5156250000000000e-01 0.0000000000000000e+00  -6.8736481849930120e-01 4.9606282874006236e-01 0.0000000000000000e+00  -1.0833543089707726e-01 -1.7849010360743400e-01 0.0000000000000000e+00  3.7413708832794434e-03 -9.0654597331845288e-01 0.0000000000000000e+00  1.7849010360743406e-01 1.0833543089707731e-01 0.0000000000000000e+00  7.9432024416411395e-01 1.6051035237682215e-01 0.0000000000000000e+00  9.0654597331845310e-01 -3.7413708832794712e-03 0.0000000000000000e+00  2.5546230511112633e-01 -8.7038383713406819e-01 0.0000000000000000e+00  0.0000000000000000e+00 -1.7904402063469902e+00 0.0000000000000000e+00  5.9405171682645530e-01 -5.9405171682645530e-01 0.0000000000000000e+00  0.0000000000000000e+00 -1.0108078789852815e+00 0.0000000000000000e+00  1.0108078789852815e+00 0.0000000000000000e+00 0.0000000000000000e+00  8.7038383713406842e-01 -2.5546230511112633e-01 0.0000000000000000e+00  1.7904402063469904e+00 0.0000000000000000e+00 0.0000000000000000e+00  -6.8321801002994431e-01 3.3165551002994453e-01 0.0000000000000000e+00  -9.9212565748012449e-01 0.0000000000000000e+00 0.0000000000000000e+00  -1.0263233218408829e-01 3.7649767017047375e-01 0.0000000000000000e+00  6.1896448945307625e-01 2.5794967195763852e-01 0.0000000000000000e+00  -4.8483310106755079e-01 2.8112243579152285e-01 0.0000000000000000e+00  -3.2102070475364425e-01 0.0000000000000000e+00 0.0000000000000000e+00  -2.5420830107435904e-01 2.8758148386537702e-01 0.0000000000000000e+00  4.2522986292132364e-01 3.2161423468357514e-01 0.0000000000000000e+00  1.4793529639740310e+00 0.0000000000000000e+00 0.0000000000000000e+00  2.2040357872100891e-01 3.7364813810544673e-01 0.0000000000000000e+00  5.8846157311336045e-01 0.0000000000000000e+00 0.0000000000000000e+00  0.0000000000000000e+00 4.2234630587192135e-01 0.0000000000000000e+00  -6.6151929572448531e-02 4.4515397421274533e-01 0.0000000000000000e+00  0.0000000000000000e+00 3.1108724237296048e-01 0.0000000000000000e+00  -3.3666690528735632e-01 1.0730563079847015e+00 0.0000000000000000e+00  -6.5624999999999989e-01 1.0825317547305484e+00 0.0000000000000000e+00  0.0000000000000000e+00 1.3125000000000000e+00 0.0000000000000000e+00  -4.0685394015087140e-01 7.3603526405417552e-01 0.0000000000000000e+00  -3.9723823009671771e-01 3.5027327859300084e-01 0.0000000000000000e+00  -3.9638050792811652e-01 4.0864501407494086e-01 0.0000000000000000e+00  -2.0885370986452151e-01 8.9927522069067323e-01 0.0000000000000000e+00  0.0000000000000000e+00 7.9447646019343554e-01 0.0000000000000000e+00  -1.6690080570296767e-01 7.3940282629062726e-01 0.0000000000000000e+00  -1.5246283137753297e-01 3.0407701974773904e-01 0.0000000000000000e+00  -1.5744132975794675e-01 1.5499213517490507e-01 0.0000000000000000e+00  0.0000000000000000e+00 1.6336186205459691e-01 0.0000000000000000e+00  -2.8085792845522140e-01 3.7235057754809020e-01 0.0000000000000000e+00  -3.7621615256114482e-01 2.5116672278716934e-01 0.0000000000000000e+00  -3.6828614047105823e-01 3.2000865122258904e-01 0.0000000000000000e+00  -1.5013374891326142e-01 4.4887040363375130e-01 0.0000000000000000e+00  0.0000000000000000e+00 4.7515288245959075e-01 0.0000000000000000e+00  -1.5295939337240738e-01 5.9224030523865756e-01 0.0000000000000000e+00  -2.1547992505647970e-01 -7.1057190602053888e-01 0.0000000000000000e+00  -1.1745992997402005e-01 -1.1505129727062846e+00 0.0000000000000000e+00  -8.1680931027298440e-02 -1.2449845984295287e+00 0.0000000000000000e+00  -3.3475351814606757e-01 -2.4080123513320006e-01 0.0000000000000000e+00  -3.6536961546363811e-01 -1.8644648342394360e-01 0.0000000000000000e+00  -3.9119239065853817e-01 1.1466029012306544e-01 0.0000000000000000e+00  -2.9484358437778230e-01 -3.0577603303852868e-01 0.0000000000000000e+00  -2.3757644122979535e-01 -3.7984104636129862e-01 0.0000000000000000e+00  -3.5574705710174548e-01 6.5638415031245623e-02 0.0000000000000000e+00  -3.6857401256866706e-01 3.7639415019244565e-01 0.0000000000000000e+00  -3.7931739250144492e-01 4.1144558159767419e-01 0.0000000000000000e+00  -2.9433440677628120e-01 5.9063373342415626e-01 0.0000000000000000e+00  -2.9820975163631208e-01 1.3021131409478473e-01 0.0000000000000000e+00  -1.6387375685382458e-01 0.0000000000000000e+00 0.0000000000000000e+00  -3.8961022221421387e-01 1.7387909660351286e-01 0.0000000000000000e+00  -4.2459022617126507e-01 9.1484054420944094e-02 0.0000000000000000e+00  -4.0645528292063654e-01 8.9896241956319581e-02 0.0000000000000000e+00  -4.2543898750352566e-01 0.0000000000000000e+00 0.0000000000000000e+00  -4.6767133527860505e-01 3.5220518055226857e-02 0.0000000000000000e+00  -2.4520339948867828e-01 -2.0342652708927456e-01 0.0000000000000000e+00  0.0000000000000000e+00 -3.0476502021523422e-01 0.0000000000000000e+00  -2.6123046100213876e-01 0.0000000000000000e+00 0.0000000000000000e+00  -2.2856964681836406e-01 -3.9499800910261307e-01 0.0000000000000000e+00  0.0000000000000000e+00 -8.4986578736118223e-01 0.0000000000000000e+00  -2.1103406355512350e-01 -5.7444737175728144e-01 0.0000000000000000e+00  -3.9821152891971240e-01 -1.1245474339227843e-01 0.0000000000000000e+00  -4.9496618992490671e-01 0.0000000000000000e+00 0.0000000000000000e+00  -4.6882482396977121e-01 -3.2597406861478745e-02 0.0000000000000000e+00  -1.4664727685222312e-01 -1.0319038873951905e+00 0.0000000000000000e+00  0.0000000000000000e+00 -1.6259987814746055e+00 0.0000000000000000e+00  -2.9221519673245450e-01 -5.2339277498931491e-01 0.0000000000000000e+00  -3.9203959798841631e-01 -1.4094311169775492e-01 0.0000000000000000e+00  -1.7102481958224705e-01 -8.9437579448005322e-01 0.0000000000000000e+00  0.0000000000000000e+00 -1.2982242208679717e+00 0.0000000000000000e+00  -1.9210902641355582e-01 -7.4124981114345889e-01 0.0000000000000000e+00  -4.1753851693501037e-01 -1.0160771866441115e-01 0.0000000000000000e+00  -3.4833677484537329e-01 -3.2443309485354471e-01 0.0000000000000000e+00  -4.4301862516270496e-01 -6.6072399129374210e-02 0.0000000000000000e+00  -7.3638940269734521e-01 7.3638940269734532e-01 0.0000000000000000e+00  -1.0825317547305484e+00 6.5625000000000011e-01 0.0000000000000000e+00  -4.9242128053980178e-01 5.2718155418965407e-01 0.0000000000000000e+00  -3.4302231836251074e-01 2.4174420837197330e-01 0.0000000000000000e+00  -5.2718155418965407e-01 4.9242128053980189e-01 0.0000000000000000e+00  -3.5027327859300078e-01 3.9723823009671788e-01 0.0000000000000000e+00  -2.4174420837197313e-01 3.4302231836251079e-01 0.0000000000000000e+00  -8.8597094691259398e-02 -8.6303473739807179e-01 0.0000000000000000e+00  -3.7532205200885044e-02 -1.3079543024642315e+00 0.0000000000000000e+00  -1.5402681925596895e-01 -4.5590978195178999e-01 0.0000000000000000e+00  -2.3649324813691192e-01 -8.7320978341161704e-02 0.0000000000000000e+00  -3.7597059402022542e-02 -5.2165916358842135e-01 0.0000000000000000e+00  1.1420289267646883e-01 -5.6266263598508859e-01 0.0000000000000000e+00  7.1183739435949189e-02 -2.5362585034799279e-01 0.0000000000000000e+00  8.6303473739807224e-01 8.8597094691259357e-02 0.0000000000000000e+00  1.3079543024642317e+00 3.7532205200885051e-02 0.0000000000000000e+00  1.2449845984295289e+00 8.1680931027298467e-02 0.0000000000000000e+00  5.2165916358842146e-01 3.7597059402022542e-02 0.0000000000000000e+00  5.6266263598508859e-01 -1.1420289267646883e-01 0.0000000000000000e+00  2.5362585034799279e-01 -7.1183739435949134e-02 0.0000000000000000e+00  4.5590978195179022e-01 1.5402681925596906e-01 0.0000000000000000e+00  3.7984104636129878e-01 2.3757644122979546e-01 0.0000000000000000e+00  8.7320978341161704e-02 2.3649324813691203e-01 0.0000000000000000e+00  -2.1131634092271112e-01 1.1711117482139299e-01 0.0000000000000000e+00  -7.8201376237785891e-03 7.8201376237787001e-03 0.0000000000000000e+00  -1.1711117482139299e-01 2.1131634092271123e-01 0.0000000000000000e+00  1.6435962757438374e-02 -1.3301136390315023e+00 0.0000000000000000e+00  0.0000000000000000e+00 -1.7898725383284300e+00 0.0000000000000000e+00  1.1833610012894180e-01 -9.1300299720352895e-01 0.0000000000000000e+00  3.0055554356747227e-01 -5.6553333786901994e-01 0.0000000000000000e+00  8.1128577625927484e-02 -1.3008310774006902e+00 0.0000000000000000e+00  0.0000000000000000e+00 -1.7236632083714971e+00 0.0000000000000000e+00  1.5688850835832893e-01 -1.2089211464220639e+00 0.0000000000000000e+00  4.4862992657795292e-01 -4.4862992657795292e-01 0.0000000000000000e+00  5.6599548121737298e-01 0.0000000000000000e+00 0.0000000000000000e+00  0.0000000000000000e+00 -5.6599548121737298e-01 0.0000000000000000e+00  7.9320953802232552e-01 -3.4102439021064251e-01 0.0000000000000000e+00  1.3448319772860891e+00 0.0000000000000000e+00 0.0000000000000000e+00  1.0432721957270528e+00 -2.4363147041660227e-01 0.0000000000000000e+00  3.4102439021064251e-01 -7.9320953802232552e-01 0.0000000000000000e+00  0.0000000000000000e+00 -1.3448319772860891e+00 0.0000000000000000e+00  2.4363147041660227e-01 -1.0432721957270528e+00 0.0000000000000000e+00  1.3301136390315027e+00 -1.6435962757438388e-02 0.0000000000000000e+00  1.7898725383284302e+00 0.0000000000000000e+00 0.0000000000000000e+00  9.1300299720352895e-01 -1.1833610012894180e-01 0.0000000000000000e+00  5.6553333786902005e-01 -3.0055554356747222e-01 0.0000000000000000e+00  1.3008310774006902e+00 -8.1128577625927484e-02 0.0000000000000000e+00  1.7236632083714971e+00 0.0000000000000000e+00 0.0000000000000000e+00  1.2089211464220642e+00 -1.5688850835832896e-01 0.0000000000000000e+00  5.1914623559942175e-01 -5.1914623559942175e-01 0.0000000000000000e+00  7.6745172001624973e-01 -4.1440917397474752e-01 0.0000000000000000e+00  4.1440917397474752e-01 -7.6745172001624973e-01 0.0000000000000000e+00  -1.0730563079847015e+00 3.3666690528735638e-01 0.0000000000000000e+00  -1.3125000000000000e+00 0.0000000000000000e+00 0.0000000000000000e+00  -7.3603526405417541e-01 4.0685394015087145e-01 0.0000000000000000e+00  -4.0864501407494069e-01 3.9638050792811669e-01 0.0000000000000000e+00  -8.9927522069067312e-01 2.0885370986452156e-01 0.0000000000000000e+00  -7.9447646019343554e-01 0.0000000000000000e+00 0.0000000000000000e+00  -7.3940282629062726e-01 1.6690080570296775e-01 0.0000000000000000e+00  7.1057190602053888e-01 2.1547992505647970e-01 0.0000000000000000e+00  1.1505129727062851e+00 1.1745992997402005e-01 0.0000000000000000e+00  3.0577603303852868e-01 2.9484358437778224e-01 0.0000000000000000e+00  -6.5638415031245623e-02 3.5574705710174548e-01 0.0000000000000000e+00  2.4080123513320023e-01 3.3475351814606769e-01 0.0000000000000000e+00  1.8644648342394404e-01 3.6536961546363833e-01 0.0000000000000000e+00  -1.1466029012306533e-01 3.9119239065853834e-01 0.0000000000000000e+00  -3.0407701974773904e-01 1.5246283137753325e-01 0.0000000000000000e+00  -1.5499213517490504e-01 1.5744132975794758e-01 0.0000000000000000e+00  -1.6336186205459691e-01 0.0000000000000000e+00 0.0000000000000000e+00  -3.7235057754809009e-01 2.8085792845522151e-01 0.0000000000000000e+00  -2.5116672278716934e-01 3.7621615256114482e-01 0.0000000000000000e+00  -3.2000865122258904e-01 3.6828614047105829e-01 0.0000000000000000e+00  -4.4887040363375125e-01 1.5013374891326153e-01 0.0000000000000000e+00  -4.7515288245959075e-01 0.0000000000000000e+00 0.0000000000000000e+00  -5.9224030523865745e-01 1.5295939337240769e-01 0.0000000000000000e+00  -4.1144558159767397e-01 3.7931739250144514e-01 0.0000000000000000e+00  -3.7639415019244549e-01 3.6857401256866718e-01 0.0000000000000000e+00  -5.9063373342415604e-01 2.9433440677628153e-01 0.0000000000000000e+00  1.0319038873951905e+00 1.4664727685222312e-01 0.0000000000000000e+00  1.6259987814746060e+00 0.0000000000000000e+00 0.0000000000000000e+00  5.2339277498931536e-01 2.9221519673245466e-01 0.0000000000000000e+00  1.4094311169775486e-01 3.9203959798841631e-01 0.0000000000000000e+00  8.9437579448005367e-01 1.7102481958224708e-01 0.0000000000000000e+00  1.2982242208679722e+00 0.0000000000000000e+00 0.0000000000000000e+00  7.4124981114345934e-01 1.9210902641355587e-01 0.0000000000000000e+00  2.0342652708927472e-01 2.4520339948867845e-01 0.0000000000000000e+00  0.0000000000000000e+00 2.6123046100213898e-01 0.0000000000000000e+00  3.0476502021523438e-01 0.0000000000000000e+00 0.0000000000000000e+00  1.1245474339227854e-01 3.9821152891971268e-01 0.0000000000000000e+00  0.0000000000000000e+00 4.9496618992490671e-01 0.0000000000000000e+00  3.2597406861478828e-02 4.6882482396977154e-01 0.0000000000000000e+00  3.9499800910261307e-01 2.2856964681836406e-01 0.0000000000000000e+00  8.4986578736118257e-01 0.0000000000000000e+00 0.0000000000000000e+00  5.7444737175728222e-01 2.1103406355512364e-01 0.0000000000000000e+00  -1.3021131409478470e-01 2.9820975163631258e-01 0.0000000000000000e+00  0.0000000000000000e+00 1.6387375685382577e-01 0.0000000000000000e+00  -1.7387909660351272e-01 3.8961022221421443e-01 0.0000000000000000e+00  -9.1484054420944122e-02 4.2459022617126491e-01 0.0000000000000000e+00  -8.9896241956319498e-02 4.0645528292063726e-01 0.0000000000000000e+00  0.0000000000000000e+00 4.2543898750352638e-01 0.0000000000000000e+00  -3.5220518055226857e-02 4.6767133527860516e-01 0.0000000000000000e+00  1.0160771866441148e-01 4.1753851693501071e-01 0.0000000000000000e+00  6.6072399129374182e-02 4.4301862516270485e-01 0.0000000000000000e+00  3.2443309485354488e-01 3.4833677484537340e-01 0.0000000000000000e+00  -3.9668558500644652e-01 1.4219951328856868e+00 0.0000000000000000e+00  0.0000000000000000e+00 1.6733326443916283e+00 0.0000000000000000e+00  -8.3666632219581405e-01 1.4320997722128843e+00 0.0000000000000000e+00  -2.1430351133340397e-01 1.2345501479471057e+00 0.0000000000000000e+00  0.0000000000000000e+00 1.1238248686972176e+00 0.0000000000000000e+00  -1.4472178023744339e-01 1.0849185003294417e+00 0.0000000000000000e+00  -4.7668772025748807e-01 1.1297074275065275e+00 0.0000000000000000e+00  -5.6191243434860871e-01 8.6687204394020390e-01 0.0000000000000000e+00  -4.7511726565778900e-01 9.1222566707427077e-01 0.0000000000000000e+00  -4.0117848784212001e-01 3.8692915976404607e-01 0.0000000000000000e+00  -3.7099958226982072e-01 2.1437687563058355e-01 0.0000000000000000e+00  -3.5504475909825084e-01 1.7824798890412258e-01 0.0000000000000000e+00  -4.0677835966594056e-01 5.7296578119467123e-01 0.0000000000000000e+00  -3.8311505252630434e-01 5.7000867272731415e-01 0.0000000000000000e+00  -3.6415022597824398e-01 7.1776011129906636e-01 0.0000000000000000e+00  -4.2945318240223973e-01 5.5660381143167159e-01 0.0000000000000000e+00  -4.4323503968017147e-01 5.1845054075175256e-01 0.0000000000000000e+00  -4.5511127736416279e-01 7.2837888275272655e-01 0.0000000000000000e+00  -8.6422280727050493e-02 7.8037991654903927e-01 0.0000000000000000e+00  -8.1096479324631932e-02 6.9861047106653973e-01 0.0000000000000000e+00  0.0000000000000000e+00 7.1008951819650179e-01 0.0000000000000000e+00  -1.8239278217601290e-01 8.1706708410240314e-01 0.0000000000000000e+00  -2.5405140348838512e-01 7.3856556237149351e-01 0.0000000000000000e+00  -2.8156186739303457e-01 8.0092127230625088e-01 0.0000000000000000e+00  -9.5794267716688197e-02 8.6845043400246302e-01 0.0000000000000000e+00  0.0000000000000000e+00 8.8647007936034306e-01 0.0000000000000000e+00  -1.1259276346127157e-01 9.6733909225728010e-01 0.0000000000000000e+00  -3.2469134743015687e-01 8.5843081507493135e-01 0.0000000000000000e+00  -2.5485946902605811e-01 9.8645356297337083e-01 0.0000000000000000e+00  -3.8922752036206526e-01 9.0187326084653274e-01 0.0000000000000000e+00  -7.9773260741496793e-02 1.6126406030334747e-01 0.0000000000000000e+00  0.0000000000000000e+00 8.2484695847917164e-02 0.0000000000000000e+00  -8.1307594304150049e-02 8.1437374929024642e-02 0.0000000000000000e+00  -7.8427926745386636e-02 2.3963773388332366e-01 0.0000000000000000e+00  0.0000000000000000e+00 2.4279900633244700e-01 0.0000000000000000e+00  -7.7336871028846316e-02 3.1676877214779287e-01 0.0000000000000000e+00  -1.5471432790974041e-01 2.3019282915077638e-01 0.0000000000000000e+00  -2.2675813798040201e-01 2.1457687571492673e-01 0.0000000000000000e+00  -2.2322579175881926e-01 2.8312951056072194e-01 0.0000000000000000e+00  -3.7140999089644294e-01 2.8681818014541899e-01 0.0000000000000000e+00  -3.9383454402903240e-01 2.1970579206423013e-01 0.0000000000000000e+00  -3.9975269782693829e-01 1.9902275529580735e-01 0.0000000000000000e+00  -3.3107522535189504e-01 3.6391788817996851e-01 0.0000000000000000e+00  -3.3046429871356531e-01 4.0881627762004030e-01 0.0000000000000000e+00  -2.7983589405226611e-01 4.2931074853012396e-01 0.0000000000000000e+00  -3.3377719559644570e-01 3.1694290806083991e-01 0.0000000000000000e+00  -3.3808490436777772e-01 2.6814419395206668e-01 0.0000000000000000e+00  -2.8358449733464214e-01 3.1398966792695815e-01 0.0000000000000000e+00  -7.6749899997338028e-02 5.4411410898737078e-01 0.0000000000000000e+00  -7.8167840809085981e-02 6.2042682181112874e-01 0.0000000000000000e+00  0.0000000000000000e+00 5.5207656900282021e-01 0.0000000000000000e+00  -1.5065437257793377e-01 5.2048002691559914e-01 0.0000000000000000e+00  -2.2139343852548621e-01 5.4652635889631274e-01 0.0000000000000000e+00  -2.1909504227982210e-01 4.8187685160514099e-01 0.0000000000000000e+00  -7.6329647674470411e-02 4.6854241795507745e-01 0.0000000000000000e+00  0.0000000000000000e+00 3.9833179800658924e-01 0.0000000000000