<?xml version="1.0"?>
<VTKFile type="UnstructuredGrid"  version="0.1"  >
<UnstructuredGrid>
<Piece  NumberOfPoints="21" NumberOfCells="24">
<Points>
<DataArray  type="Float64"  NumberOfComponents="3"  format="ascii">0 0 0  1 0 0  1 1 0  0 1 0  -1 1 0  -1 0 0  -1 -1 0  0 -1 0  0.5 0.5 0  0 0.5 0  0.5 0 0  0.5 1 0  1 0.5 0  -0.5 0.5 0  -0.5 0 0  -1 0.5 0  -0.5 1 0  -0.5 -0.5 0  0 -0.5 0  -0.5 -1 0  -1 -0.5 0  </DataArray>
</Points>
<Cells>
<DataArray  type="UInt32"  Name="connectivity"  format="ascii">0 9 10  1 8 10  3 8 9  8 9 10  1 8 12  2 11 12  3 8 11  8 11 12  0 9 14  3 9 13  5 13 14  9 13 14  3 13 16  4 15 16  5 13 15  13 15 16  0 14 18  5 14 17  7 17 18  14 17 18  5 17 20  6 19 20  7 17 19  17 19 20  </DataArray>
<DataArray  type="UInt32"  Name="offsets"  format="ascii">3 6 9 12 15 18 21 24 27 30 33 36 39 42 45 48 51 54 57 60 63 66 69 72 </DataArray>
<DataArray  type="UInt8"  Name="types"  format="ascii">5 5 5 5 5 5 5 5 5 5 5 5 5 5 5 5 5 5 5 5 5 5 5 5 </DataArray>
</Cells>
<PointData  Vectors="u"> 
<DataArray  type="Float64"  Name="u"  NumberOfComponents="3" format="ascii">0.0000000000000000e+00 0.0000000000000000e+00 0.0000000000000000e+00  0.0000000000000000e+00 0.0000000000000000e+00 0.0000000000000000e+00  0.0000000000000000e+00 0.0000000000000000e+00 0.0000000000000000e+00  0.0000000000000000e+00 -1.7320508075688772e+00 0.0000000000000000e+00  0.0000000000000000e+00 0.0000000000000000e+00 0.0000000000000000e+00  1.7320508075688774e+00 0.0000000000000000e+00 0.0000000000000000e+00  0.0000000000000000e+00 0.0000000000000000e+00 0.0000000000000000e+00  0.0000000000000000e+00 0.0000000000000000e+00 0.0000000000000000e+00  -4.0658065555925665e-01 1.0894295831521938e-01 0.0000000000000000e+00  -3.1498026247371824e-01 0.0000000000000000e+00 0.0000000000000000e+00  0.0000000000000000e+00 6.2996052494743660e-01 0.0000000000000000e+00  0.0000000000000000e+00 -1.0872618141689698e+00 0.0000000000000000e+00  -4.9153410380406493e-01 0.0000000000000000e+00 0.0000000000000000e+00  2.9763769724403749e-01 -2.9763769724403744e-01 0.0000000000000000e+00  0.0000000000000000e+00 3.1498026247371835e-01 0.0000000000000000e+00  1.5787959179730349e+00 0.0000000000000000e+00 0.0000000000000000e+00  0.0000000000000000e+00 -1.5787959179730349e+00 0.0000000000000000e+00  -1.0894295831521911e-01 4.0658065555925693e-01 0.0000000000000000e+00  -6.2996052494743660e-01 0.0000000000000000e+00 0.0000000000000000e+00  0.0000000000000000e+00 4.9153410380406559e-01 0.0000000000000000e+00  1.0872618141689705e+00 0.0000000000000000e+00 0.0000000000000000e+00  </DataArray> 
</PointData> 
</Piece>
</UnstructuredGrid>
</VTKFile>