<?xml version="1.0"?>
<VTKFile type="UnstructuredGrid"  version="0.1"  >
<UnstructuredGrid>
<Piece  NumberOfPoints="3201" NumberOfCells="6144">
<Points>
<DataArray  type="Float32"  NumberOfComponents="3"  format="ascii">0 0 0  1 0 0  1 1 0  0 1 0  -1 1 0  -1 0 0  -1 -1 0  0 -1 0  0.5 0.5 0  0 0.5 0  0.5 0 0  0.5 1 0  1 0.5 0  -0.5 0.5 0  -0.5 0 0  -1 0.5 0  -0.5 1 0  -0.5 -0.5 0  0 -0.5 0  -0.5 -1 0  -1 -0.5 0  0.25 0.25 0  0.25 0 0  0 0.25 0  0.5 0.25 0  0.75 0 0  0.75 0.25 0  0.25 0.5 0  0 0.75 0  0.25 0.75 0  0.75 0.5 0  1 0.25 0  0.75 0.75 0  1 0.75 0  0.75 1 0  0.5 0.75 0  0.25 1 0  -0.25 0.25 0  -0.25 0 0  -0.25 0.5 0  -0.25 0.75 0  -0.5 0.25 0  -0.75 0 0  -0.75 0.25 0  -0.5 0.75 0  -0.25 1 0  -0.75 0.75 0  -0.75 1 0  -1 0.75 0  -0.75 0.5 0  -1 0.25 0  -0.25 -0.25 0  0 -0.25 0  -0.5 -0.25 0  -0.75 -0.25 0  -0.25 -0.5 0  0 -0.75 0  -0.25 -0.75 0  -0.75 -0.5 0  -1 -0.25 0  -0.75 -0.75 0  -1 -0.75 0  -0.75 -1 0  -0.5 -0.75 0  -0.25 -1 0  0.125 0.125 0  0 0.125 0  0.125 0 0  0.125 0.25 0  0 0.375 0  0.125 0.375 0  0.25 0.125 0  0.375 0 0  0.375 0.125 0  0.75 0.125 0  0.875 0.125 0  0.875 0 0  0.625 0.25 0  0.625 0.375 0  0.5 0.375 0  0.625 0.125 0  0.625 0 0  0.5 0.125 0  0.125 0.75 0  0.125 0.875 0  0 0.875 0  0.25 0.625 0  0.375 0.625 0  0.375 0.5 0  0.125 0.625 0  0 0.625 0  0.125 0.5 0  0.375 0.375 0  0.25 0.375 0  0.375 0.25 0  0.875 0.25 0  1 0.125 0  0.75 0.375 0  0.625 0.5 0  0.875 0.375 0  1 0.375 0  0.875 0.5 0  0.875 0.875 0  0.875 1 0  1 0.875 0  0.75 0.875 0  0.625 1 0  0.625 0.875 0  0.875 0.75 0  1 0.625 0  0.875 0.625 0  0.25 0.875 0  0.125 1 0  0.375 0.75 0  0.5 0.625 0  0.375 0.875 0  0.375 1 0  0.5 0.875 0  0.625 0.625 0  0.625 0.75 0  0.75 0.625 0  -0.125 0.125 0  -0.125 0 0  -0.125 0.25 0  -0.125 0.375 0  -0.25 0.125 0  -0.375 0 0  -0.375 0.125 0  -0.125 0.75 0  -0.125 0.875 0  -0.125 0.625 0  -0.125 0.5 0  -0.25 0.625 0  -0.375 0.625 0  -0.375 0.5 0  -0.75 0.125 0  -0.875 0.125 0  -0.875 0 0  -0.625 0.25 0  -0.625 0.375 0  -0.5 0.375 0  -0.625 0.125 0  -0.625 0 0  -0.5 0.125 0  -0.25 0.375 0  -0.375 0.375 0  -0.375 0.25 0  -0.25 0.875 0  -0.125 1 0  -0.375 0.75 0  -0.5 0.625 0  -0.375 0.875 0  -0.375 1 0  -0.5 0.875 0  -0.875 0.875 0  -1 0.875 0  -0.875 1 0  -0.875 0.75 0  -1 0.625 0  -0.875 0.625 0  -0.75 0.875 0  -0.625 1 0  -0.625 0.875 0  -0.875 0.25 0  -1 0.125 0  -0.75 0.375 0  -0.625 0.5 0  -0.875 0.375 0  -1 0.375 0  -0.875 0.5 0  -0.625 0.625 0  -0.75 0.625 0  -0.625 0.75 0  -0.125 -0.125 0  0 -0.125 0  -0.25 -0.125 0  -0.375 -0.125 0  -0.125 -0.25 0  0 -0.375 0  -0.125 -0.375 0  -0.75 -0.125 0  -0.875 -0.125 0  -0.625 -0.125 0  -0.5 -0.125 0  -0.625 -0.25 0  -0.625 -0.375 0  -0.5 -0.375 0  -0.125 -0.75 0  -0.125 -0.875 0  0 -0.875 0  -0.25 -0.625 0  -0.375 -0.625 0  -0.375 -0.5 0  -0.125 -0.625 0  0 -0.625 0  -0.125 -0.5 0  -0.375 -0.25 0  -0.375 -0.375 0  -0.25 -0.375 0  -0.875 -0.25 0  -1 -0.125 0  -0.75 -0.375 0  -0.625 -0.5 0  -0.875 -0.375 0  -1 -0.375 0  -0.875 -0.5 0  -0.875 -0.875 0  -0.875 -1 0  -1 -0.875 0  -0.75 -0.875 0  -0.625 -1 0  -0.625 -0.875 0  -0.875 -0.75 0  -1 -0.625 0  -0.875 -0.625 0  -0.25 -0.875 0  -0.125 -1 0  -0.375 -0.75 0  -0.5 -0.625 0  -0.375 -0.875 0  -0.375 -1 0  -0.5 -0.875 0  -0.625 -0.625 0  -0.625 -0.75 0  -0.75 -0.625 0  0.0625 0.0625 0  0.0625 0 0  0 0.0625 0  0.125 0.0625 0  0.1875 0 0  0.1875 0.0625 0  0.0625 0.125 0  0 0.1875 0  0.0625 0.1875 0  0.0625 0.375 0  0.0625 0.4375 0  0 0.4375 0  0.125 0.3125 0  0.1875 0.3125 0  0.1875 0.25 0  0.0625 0.3125 0  0 0.3125 0  0.0625 0.25 0  0.375 0.0625 0  0.4375 0.0625 0  0.4375 0 0  0.3125 0.125 0  0.3125 0.1875 0  0.25 0.1875 0  0.3125 0.0625 0  0.3125 0 0  0.25 0.0625 0  0.1875 0.1875 0  0.1875 0.125 0  0.125 0.1875 0  0.875 0.0625 0  0.9375 0 0  0.9375 0.0625 0  0.8125 0.0625 0  0.8125 0 0  0.75 0.0625 0  0.8125 0.125 0  0.8125 0.1875 0  0.75 0.1875 0  0.5625 0.375 0  0.5 0.4375 0  0.5625 0.4375 0  0.5625 0.3125 0  0.5 0.3125 0  0.5625 0.25 0  0.625 0.3125 0  0.6875 0.3125 0  0.6875 0.25 0  0.5625 0.0625 0  0.5 0.0625 0  0.5625 0 0  0.5625 0.125 0  0.5 0.1875 0  0.5625 0.1875 0  0.625 0.0625 0  0.6875 0 0  0.6875 0.0625 0  0.625 0.1875 0  0.6875 0.125 0  0.6875 0.1875 0  0.0625 0.875 0  0 0.9375 0  0.0625 0.9375 0  0.0625 0.8125 0  0 0.8125 0  0.0625 0.75 0  0.125 0.8125 0  0.1875 0.8125 0  0.1875 0.75 0  0.375 0.5625 0  0.4375 0.5 0  0.4375 0.5625 0  0.3125 0.5625 0  0.3125 0.5 0  0.25 0.5625 0  0.3125 0.625 0  0.3125 0.6875 0  0.25 0.6875 0  0.0625 0.5625 0  0.0625 0.5 0  0 0.5625 0  0.125 0.5625 0  0.1875 0.5 0  0.1875 0.5625 0  0.0625 0.625 0  0 0.6875 0  0.0625 0.6875 0  0.1875 0.625 0  0.125 0.6875 0  0.1875 0.6875 0  0.4375 0.4375 0  0.4375 0.375 0  0.4375 0.3125 0  0.375 0.4375 0  0.3125 0.4375 0  0.125 0.4375 0  0.1875 0.375 0  0.25 0.3125 0  0.1875 0.4375 0  0.25 0.4375 0  0.4375 0.125 0  0.375 0.1875 0  0.3125 0.25 0  0.4375 0.1875 0  0.4375 0.25 0  0.3125 0.3125 0  0.375 0.3125 0  0.3125 0.375 0  0.9375 0.125 0  1 0.0625 0  0.875 0.1875 0  0.8125 0.25 0  0.9375 0.1875 0  1 0.1875 0  0.9375 0.25 0  0.625 0.4375 0  0.5625 0.5 0  0.6875 0.375 0  0.75 0.3125 0  0.6875 0.4375 0  0.6875 0.5 0  0.75 0.4375 0  0.9375 0.4375 0  0.9375 0.5 0  1 0.4375 0  0.875 0.4375 0  0.8125 0.5 0  0.8125 0.4375 0  0.9375 0.375 0  1 0.3125 0  0.9375 0.3125 0  0.8125 0.3125 0  0.8125 0.375 0  0.875 0.3125 0  0.9375 0.9375 0  1 0.9375 0  0.9375 1 0  0.9375 0.875 0  1 0.8125 0  0.9375 0.8125 0  0.875 0.9375 0  0.8125 1 0  0.8125 0.9375 0  0.625 0.9375 0  0.5625 0.9375 0  0.5625 1 0  0.6875 0.875 0  0.6875 0.8125 0  0.75 0.8125 0  0.6875 0.9375 0  0.6875 1 0  0.75 0.9375 0  0.9375 0.625 0  0.9375 0.5625 0  1 0.5625 0  0.875 0.6875 0  0.8125 0.6875 0  0.8125 0.75 0  0.9375 0.6875 0  1 0.6875 0  0.9375 0.75 0  0.8125 0.8125 0  0.875 0.8125 0  0.8125 0.875 0  0.125 0.9375 0  0.0625 1 0  0.1875 0.875 0  0.25 0.8125 0  0.1875 0.9375 0  0.1875 1 0  0.25 0.9375 0  0.4375 0.625 0  0.5 0.5625 0  0.375 0.6875 0  0.3125 0.75 0  0.4375 0.6875 0  0.5 0.6875 0  0.4375 0.75 0  0.4375 0.9375 0  0.5 0.9375 0  0.4375 1 0  0.4375 0.875 0  0.5 0.8125 0  0.4375 0.8125 0  0.375 0.9375 0  0.3125 1 0  0.3125 0.9375 0  0.3125 0.8125 0  0.375 0.8125 0  0.3125 0.875 0  0.5625 0.5625 0  0.625 0.5625 0  0.6875 0.5625 0  0.5625 0.625 0  0.5625 0.6875 0  0.5625 0.875 0  0.625 0.8125 0  0.6875 0.75 0  0.5625 0.8125 0  0.5625 0.75 0  0.875 0.5625 0  0.8125 0.5625 0  0.75 0.5625 0  0.8125 0.625 0  0.75 0.6875 0  0.6875 0.625 0  0.6875 0.6875 0  0.625 0.6875 0  -0.0625 0.0625 0  -0.0625 0 0  -0.0625 0.125 0  -0.0625 0.1875 0  -0.125 0.0625 0  -0.1875 0 0  -0.1875 0.0625 0  -0.0625 0.375 0  -0.0625 0.4375 0  -0.0625 0.3125 0  -0.0625 0.25 0  -0.125 0.3125 0  -0.1875 0.3125 0  -0.1875 0.25 0  -0.375 0.0625 0  -0.4375 0.0625 0  -0.4375 0 0  -0.3125 0.125 0  -0.3125 0.1875 0  -0.25 0.1875 0  -0.3125 0.0625 0  -0.3125 0 0  -0.25 0.0625 0  -0.125 0.1875 0  -0.1875 0.1875 0  -0.1875 0.125 0  -0.0625 0.875 0  -0.0625 0.9375 0  -0.0625 0.8125 0  -0.0625 0.75 0  -0.125 0.8125 0  -0.1875 0.8125 0  -0.1875 0.75 0  -0.0625 0.5625 0  -0.0625 0.5 0  -0.0625 0.625 0  -0.0625 0.6875 0  -0.125 0.5625 0  -0.1875 0.5 0  -0.1875 0.5625 0  -0.375 0.5625 0  -0.4375 0.5 0  -0.4375 0.5625 0  -0.3125 0.5625 0  -0.3125 0.5 0  -0.25 0.5625 0  -0.3125 0.625 0  -0.3125 0.6875 0  -0.25 0.6875 0  -0.125 0.6875 0  -0.1875 0.625 0  -0.1875 0.6875 0  -0.875 0.0625 0  -0.9375 0 0  -0.9375 0.0625 0  -0.8125 0.0625 0  -0.8125 0 0  -0.75 0.0625 0  -0.8125 0.125 0  -0.8125 0.1875 0  -0.75 0.1875 0  -0.5625 0.375 0  -0.5 0.4375 0  -0.5625 0.4375 0  -0.5625 0.3125 0  -0.5 0.3125 0  -0.5625 0.25 0  -0.625 0.3125 0  -0.6875 0.3125 0  -0.6875 0.25 0  -0.5625 0.0625 0  -0.5 0.0625 0  -0.5625 0 0  -0.5625 0.125 0  -0.5 0.1875 0  -0.5625 0.1875 0  -0.625 0.0625 0  -0.6875 0 0  -0.6875 0.0625 0  -0.625 0.1875 0  -0.6875 0.125 0  -0.6875 0.1875 0  -0.125 0.4375 0  -0.1875 0.375 0  -0.25 0.3125 0  -0.1875 0.4375 0  -0.25 0.4375 0  -0.4375 0.4375 0  -0.375 0.4375 0  -0.3125 0.4375 0  -0.4375 0.375 0  -0.4375 0.3125 0  -0.4375 0.125 0  -0.375 0.1875 0  -0.3125 0.25 0  -0.4375 0.1875 0  -0.4375 0.25 0  -0.3125 0.3125 0  -0.3125 0.375 0  -0.375 0.3125 0  -0.125 0.9375 0  -0.0625 1 0  -0.1875 0.875 0  -0.25 0.8125 0  -0.1875 0.9375 0  -0.1875 1 0  -0.25 0.9375 0  -0.4375 0.625 0  -0.5 0.5625 0  -0.375 0.6875 0  -0.3125 0.75 0  -0.4375 0.6875 0  -0.5 0.6875 0  -0.4375 0.75 0  -0.4375 0.9375 0  -0.5 0.9375 0  -0.4375 1 0  -0.4375 0.875 0  -0.5 0.8125 0  -0.4375 0.8125 0  -0.375 0.9375 0  -0.3125 1 0  -0.3125 0.9375 0  -0.3125 0.8125 0  -0.375 0.8125 0  -0.3125 0.875 0  -0.9375 0.9375 0  -0.9375 1 0  -1 0.9375 0  -0.875 0.9375 0  -0.8125 1 0  -0.8125 0.9375 0  -0.9375 0.875 0  -1 0.8125 0  -0.9375 0.8125 0  -0.9375 0.625 0  -0.9375 0.5625 0  -1 0.5625 0  -0.875 0.6875 0  -0.8125 0.6875 0  -0.8125 0.75 0  -0.9375 0.6875 0  -1 0.6875 0  -0.9375 0.75 0  -0.625 0.9375 0  -0.5625 0.9375 0  -0.5625 1 0  -0.6875 0.875 0  -0.6875 0.8125 0  -0.75 0.8125 0  -0.6875 0.9375 0  -0.6875 1 0  -0.75 0.9375 0  -0.8125 0.8125 0  -0.8125 0.875 0  -0.875 0.8125 0  -0.9375 0.125 0  -1 0.0625 0  -0.875 0.1875 0  -0.8125 0.25 0  -0.9375 0.1875 0  -1 0.1875 0  -0.9375 0.25 0  -0.625 0.4375 0  -0.5625 0.5 0  -0.6875 0.375 0  -0.75 0.3125 0  -0.6875 0.4375 0  -0.6875 0.5 0  -0.75 0.4375 0  -0.9375 0.4375 0  -0.9375 0.5 0  -1 0.4375 0  -0.875 0.4375 0  -0.8125 0.5 0  -0.8125 0.4375 0  -0.9375 0.375 0  -1 0.3125 0  -0.9375 0.3125 0  -0.8125 0.3125 0  -0.8125 0.375 0  -0.875 0.3125 0  -0.5625 0.5625 0  -0.5625 0.625 0  -0.5625 0.6875 0  -0.625 0.5625 0  -0.6875 0.5625 0  -0.875 0.5625 0  -0.8125 0.625 0  -0.75 0.6875 0  -0.8125 0.5625 0  -0.75 0.5625 0  -0.5625 0.875 0  -0.5625 0.8125 0  -0.5625 0.75 0  -0.625 0.8125 0  -0.6875 0.75 0  -0.625 0.6875 0  -0.6875 0.6875 0  -0.6875 0.625 0  -0.0625 -0.0625 0  0 -0.0625 0  -0.125 -0.0625 0  -0.1875 -0.0625 0  -0.0625 -0.125 0  0 -0.1875 0  -0.0625 -0.1875 0  -0.375 -0.0625 0  -0.4375 -0.0625 0  -0.3125 -0.0625 0  -0.25 -0.0625 0  -0.3125 -0.125 0  -0.3125 -0.1875 0  -0.25 -0.1875 0 
[...]
<PointData  Vectors="u"> 
<DataArray  type="Float32"  Name="u"  NumberOfComponents="3" format="ascii">0.000000e+00 0.000000e+00 0.000000e+00  0.000000e+00 0.000000e+00 0.000000e+00  0.000000e+00 0.000000e+00 0.000000e+00  0.000000e+00 -1.732051e+00 0.000000e+00  0.000000e+00 0.000000e+00 0.000000e+00  1.732051e+00 0.000000e+00 0.000000e+00  0.000000e+00 0.000000e+00 0.000000e+00  0.000000e+00 0.000000e+00 0.000000e+00  -4.065807e-01 1.089430e-01 0.000000e+00  -3.149803e-01 0.000000e+00 0.000000e+00  0.000000e+00 6.299605e-01 0.000000e+00  0.000000e+00 -1.087262e+00 0.000000e+00  -4.915341e-01 0.000000e+00 0.000000e+00  2.976377e-01 -2.976377e-01 0.000000e+00  0.000000e+00 3.149803e-01 0.000000e+00  1.578796e+00 0.000000e+00 0.000000e+00  0.000000e+00 -1.578796e+00 0.000000e+00  -1.089430e-01 4.065807e-01 0.000000e+00  -6.299605e-01 0.000000e+00 0.000000e+00  0.000000e+00 4.915341e-01 0.000000e+00  1.087262e+00 0.000000e+00 0.000000e+00  -3.316555e-01 6.832180e-01 0.000000e+00  0.000000e+00 9.921257e-01 0.000000e+00  -4.960628e-01 6.873648e-01 0.000000e+00  -2.811224e-01 4.848331e-01 0.000000e+00  0.000000e+00 3.210207e-01 0.000000e+00  -2.875815e-01 2.542083e-01 0.000000e+00  -3.764977e-01 1.026323e-01 0.000000e+00  -1.605104e-01 -7.943202e-01 0.000000e+00  -2.579497e-01 -6.189645e-01 0.000000e+00  -4.451540e-01 6.615193e-02 0.000000e+00  -3.110872e-01 0.000000e+00 0.000000e+00  -3.736481e-01 -2.204036e-01 0.000000e+00  -4.223463e-01 0.000000e+00 0.000000e+00  0.000000e+00 -5.884616e-01 0.000000e+00  -3.216142e-01 -4.252299e-01 0.000000e+00  0.000000e+00 -1.479353e+00 0.000000e+00  -3.515625e-01 3.515625e-01 0.000000e+00  -6.873648e-01 4.960628e-01 0.000000e+00  -1.083354e-01 -1.784901e-01 0.000000e+00  3.741371e-03 -9.065460e-01 0.000000e+00  1.784901e-01 1.083354e-01 0.000000e+00  7.943202e-01 1.605104e-01 0.000000e+00  9.065460e-01 -3.741371e-03 0.000000e+00  2.554623e-01 -8.703838e-01 0.000000e+00  0.000000e+00 -1.790440e+00 0.000000e+00  5.940517e-01 -5.940517e-01 0.000000e+00  0.000000e+00 -1.010808e+00 0.000000e+00  1.010808e+00 0.000000e+00 0.000000e+00  8.703838e-01 -2.554623e-01 0.000000e+00  1.790440e+00 0.000000e+00 0.000000e+00  -6.832180e-01 3.316555e-01 0.000000e+00  -9.921257e-01 0.000000e+00 0.000000e+00  -1.026323e-01 3.764977e-01 0.000000e+00  6.189645e-01 2.579497e-01 0.000000e+00  -4.848331e-01 2.811224e-01 0.000000e+00  -3.210207e-01 0.000000e+00 0.000000e+00  -2.542083e-01 2.875815e-01 0.000000e+00  4.252299e-01 3.216142e-01 0.000000e+00  1.479353e+00 0.000000e+00 0.000000e+00  2.204036e-01 3.736481e-01 0.000000e+00  5.884616e-01 0.000000e+00 0.000000e+00  0.000000e+00 4.223463e-01 0.000000e+00  -6.615193e-02 4.451540e-01 0.000000e+00  0.000000e+00 3.110872e-01 0.000000e+00  -3.366669e-01 1.073056e+00 0.000000e+00  -6.562500e-01 1.082532e+00 0.000000e+00  0.000000e+00 1.312500e+00 0.000000e+00  -4.068539e-01 7.360353e-01 0.000000e+00  -3.972382e-01 3.502733e-01 0.000000e+00  -3.963805e-01 4.086450e-01 0.000000e+00  -2.088537e-01 8.992752e-01 0.000000e+00  0.000000e+00 7.944765e-01 0.000000e+00  -1.669008e-01 7.394028e-01 0.000000e+00  -1.524628e-01 3.040770e-01 0.000000e+00  -1.574413e-01 1.549921e-01 0.000000e+00  0.000000e+00 1.633619e-01 0.000000e+00  -2.808579e-01 3.723506e-01 0.000000e+00  -3.762162e-01 2.511667e-01 0.000000e+00  -3.682861e-01 3.200087e-01 0.000000e+00  -1.501337e-01 4.488704e-01 0.000000e+00  0.000000e+00 4.751529e-01 0.000000e+00  -1.529594e-01 5.922403e-01 0.000000e+00  -2.154799e-01 -7.105719e-01 0.000000e+00  -1.174599e-01 -1.150513e+00 0.000000e+00  -8.168093e-02 -1.244985e+00 0.000000e+00  -3.347535e-01 -2.408012e-01 0.000000e+00  -3.653696e-01 -1.864465e-01 0.000000e+00  -3.911924e-01 1.146603e-01 0.000000e+00  -2.948436e-01 -3.057760e-01 0.000000e+00  -2.375764e-01 -3.798410e-01 0.000000e+00  -3.557471e-01 6.563842e-02 0.000000e+00  -3.685740e-01 3.763942e-01 0.000000e+00  -3.793174e-01 4.114456e-01 0.000000e+00  -2.943344e-01 5.906337e-01 0.000000e+00  -2.982098e-01 1.302113e-01 0.000000e+00  -1.638738e-01 0.000000e+00 0.000000e+00  -3.896102e-01 1.738791e-01 0.000000e+00  -4.245902e-01 9.148405e-02 0.000000e+00  -4.064553e-01 8.989624e-02 0.000000e+00  -4.254390e-01 0.000000e+00 0.000000e+00  -4.676713e-01 3.522052e-02 0.000000e+00  -2.452034e-01 -2.034265e-01 0.000000e+00  0.000000e+00 -3.047650e-01 0.000000e+00  -2.612305e-01 0.000000e+00 0.000000e+00  -2.285696e-01 -3.949980e-01 0.000000e+00  0.000000e+00 -8.498658e-01 0.000000e+00  -2.110341e-01 -5.744474e-01 0.000000e+00  -3.982115e-01 -1.124547e-01 0.000000e+00  -4.949662e-01 0.000000e+00 0.000000e+00  -4.688248e-01 -3.259741e-02 0.000000e+00  -1.466473e-01 -1.031904e+00 0.000000e+00  0.000000e+00 -1.625999e+00 0.000000e+00  -2.922152e-01 -5.233928e-01 0.000000e+00  -3.920396e-01 -1.409431e-01 0.000000e+00  -1.710248e-01 -8.943758e-01 0.000000e+00  0.000000e+00 -1.298224e+00 0.000000e+00  -1.921090e-01 -7.412498e-01 0.000000e+00  -4.175385e-01 -1.016077e-01 0.000000e+00  -3.483368e-01 -3.244331e-01 0.000000e+00  -4.430186e-01 -6.607240e-02 0.000000e+00  -7.363894e-01 7.363894e-01 0.000000e+00  -1.082532e+00 6.562500e-01 0.000000e+00  -4.924213e-01 5.271816e-01 0.000000e+00  -3.430223e-01 2.417442e-01 0.000000e+00  -5.271816e-01 4.924213e-01 0.000000e+00  -3.502733e-01 3.972382e-01 0.000000e+00  -2.417442e-01 3.430223e-01 0.000000e+00  -8.859709e-02 -8.630347e-01 0.000000e+00  -3.753221e-02 -1.307954e+00 0.000000e+00  -1.540268e-01 -4.559098e-01 0.000000e+00  -2.364932e-01 -8.732098e-02 0.000000e+00  -3.759706e-02 -5.216592e-01 0.000000e+00  1.142029e-01 -5.626626e-01 0.000000e+00  7.118374e-02 -2.536259e-01 0.000000e+00  8.630347e-01 8.859709e-02 0.000000e+00  1.307954e+00 3.753221e-02 0.000000e+00  1.244985e+00 8.168093e-02 0.000000e+00  5.216592e-01 3.759706e-02 0.000000e+00  5.626626e-01 -1.142029e-01 0.000000e+00  2.536259e-01 -7.118374e-02 0.000000e+00  4.559098e-01 1.540268e-01 0.000000e+00  3.798410e-01 2.375764e-01 0.000000e+00  8.732098e-02 2.364932e-01 0.000000e+00  -2.113163e-01 1.171112e-01 0.000000e+00  -7.820138e-03 7.820138e-03 0.000000e+00  -1.171112e-01 2.113163e-01 0.000000e+00  1.643596e-02 -1.330114e+00 0.000000e+00  0.000000e+00 -1.789873e+00 0.000000e+00  1.183361e-01 -9.130030e-01 0.000000e+00  3.005555e-01 -5.655333e-01 0.000000e+00  8.112858e-02 -1.300831e+00 0.000000e+00  0.000000e+00 -1.723663e+00 0.000000e+00  1.568885e-01 -1.208921e+00 0.000000e+00  4.486299e-01 -4.486299e-01 0.000000e+00  5.659955e-01 0.000000e+00 0.000000e+00  0.000000e+00 -5.659955e-01 0.000000e+00  7.932095e-01 -3.410244e-01 0.000000e+00  1.344832e+00 0.000000e+00 0.000000e+00  1.043272e+00 -2.436315e-01 0.000000e+00  3.410244e-01 -7.932095e-01 0.000000e+00  0.000000e+00 -1.344832e+00 0.000000e+00  2.436315e-01 -1.043272e+00 0.000000e+00  1.330114e+00 -1.643596e-02 0.000000e+00  1.789873e+00 0.000000e+00 0.000000e+00  9.130030e-01 -1.183361e-01 0.000000e+00  5.655333e-01 -3.005555e-01 0.000000e+00  1.300831e+00 -8.112858e-02 0.000000e+00  1.723663e+00 0.000000e+00 0.000000e+00  1.208921e+00 -1.568885e-01 0.000000e+00  5.191462e-01 -5.191462e-01 0.000000e+00  7.674517e-01 -4.144092e-01 0.000000e+00  4.144092e-01 -7.674517e-01 0.000000e+00  -1.073056e+00 3.366669e-01 0.000000e+00  -1.312500e+00 0.000000e+00 0.000000e+00  -7.360353e-01 4.068539e-01 0.000000e+00  -4.086450e-01 3.963805e-01 0.000000e+00  -8.992752e-01 2.088537e-01 0.000000e+00  -7.944765e-01 0.000000e+00 0.000000e+00  -7.394028e-01 1.669008e-01 0.000000e+00  7.105719e-01 2.154799e-01 0.000000e+00  1.150513e+00 1.174599e-01 0.000000e+00  3.057760e-01 2.948436e-01 0.000000e+00  -6.563842e-02 3.557471e-01 0.000000e+00  2.408012e-01 3.347535e-01 0.000000e+00  1.864465e-01 3.653696e-01 0.000000e+00  -1.146603e-01 3.911924e-01 0.000000e+00  -3.040770e-01 1.524628e-01 0.000000e+00  -1.549921e-01 1.574413e-01 0.000000e+00  -1.633619e-01 0.000000e+00 0.000000e+00  -3.723506e-01 2.808579e-01 0.000000e+00  -2.511667e-01 3.762162e-01 0.000000e+00  -3.200087e-01 3.682861e-01 0.000000e+00  -4.488704e-01 1.501337e-01 0.000000e+00  -4.751529e-01 0.000000e+00 0.000000e+00  -5.922403e-01 1.529594e-01 0.000000e+00  -4.114456e-01 3.793174e-01 0.000000e+00  -3.763942e-01 3.685740e-01 0.000000e+00  -5.906337e-01 2.943344e-01 0.000000e+00  1.031904e+00 1.466473e-01 0.000000e+00  1.625999e+00 0.000000e+00 0.000000e+00  5.233928e-01 2.922152e-01 0.000000e+00  1.409431e-01 3.920396e-01 0.000000e+00  8.943758e-01 1.710248e-01 0.000000e+00  1.298224e+00 0.000000e+00 0.000000e+00  7.412498e-01 1.921090e-01 0.000000e+00  2.034265e-01 2.452034e-01 0.000000e+00  0.000000e+00 2.612305e-01 0.000000e+00  3.047650e-01 0.000000e+00 0.000000e+00  1.124547e-01 3.982115e-01 0.000000e+00  0.000000e+00 4.949662e-01 0.000000e+00  3.259741e-02 4.688248e-01 0.000000e+00  3.949980e-01 2.285696e-01 0.000000e+00  8.498658e-01 0.000000e+00 0.000000e+00  5.744474e-01 2.110341e-01 0.000000e+00  -1.302113e-01 2.982098e-01 0.000000e+00  0.000000e+00 1.638738e-01 0.000000e+00  -1.738791e-01 3.896102e-01 0.000000e+00  -9.148405e-02 4.245902e-01 0.000000e+00  -8.989624e-02 4.064553e-01 0.000000e+00  0.000000e+00 4.254390e-01 0.000000e+00  -3.522052e-02 4.676713e-01 0.000000e+00  1.016077e-01 4.175385e-01 0.000000e+00  6.607240e-02 4.430186e-01 0.000000e+00  3.244331e-01 3.483368e-01 0.000000e+00  -3.966856e-01 1.421995e+00 0.000000e+00  0.000000e+00 1.673333e+00 0.000000e+00  -8.366663e-01 1.432100e+00 0.000000e+00  -2.143035e-01 1.234550e+00 0.000000e+00  0.000000e+00 1.123825e+00 0.000000e+00  -1.447218e-01 1.084919e+00 0.000000e+00  -4.766877e-01 1.129707e+00 0.000000e+00  -5.619124e-01 8.668720e-01 0.000000e+00  -4.751173e-01 9.122257e-01 0.000000e+00  -4.011785e-01 3.869292e-01 0.000000e+00  -3.709996e-01 2.143769e-01 0.000000e+00  -3.550448e-01 1.782480e-01 0.000000e+00  -4.067784e-01 5.729658e-01 0.000000e+00  -3.831151e-01 5.700087e-01 0.000000e+00  -3.641502e-01 7.177601e-01 0.000000e+00  -4.294532e-01 5.566038e-01 0.000000e+00  -4.432350e-01 5.184505e-01 0.000000e+00  -4.551113e-01 7.283789e-01 0.000000e+00  -8.642228e-02 7.803799e-01 0.000000e+00  -8.109648e-02 6.986105e-01 0.000000e+00  0.000000e+00 7.100895e-01 0.000000e+00  -1.823928e-01 8.170671e-01 0.000000e+00  -2.540514e-01 7.385656e-01 0.000000e+00  -2.815619e-01 8.009213e-01 0.000000e+00  -9.579427e-02 8.684504e-01 0.000000e+00  0.000000e+00 8.864701e-01 0.000000e+00  -1.125928e-01 9.673391e-01 0.000000e+00  -3.246913e-01 8.584308e-01 0.000000e+00  -2.548595e-01 9.864536e-01 0.000000e+00  -3.892275e-01 9.018733e-01 0.000000e+00  -7.977326e-02 1.612641e-01 0.000000e+00  0.000000e+00 8.248470e-02 0.000000e+00  -8.130759e-02 8.143737e-02 0.000000e+00  -7.842793e-02 2.396377e-01 0.000000e+00  0.000000e+00 2.427990e-01 0.000000e+00  -7.733687e-02 3.167688e-01 0.000000e+00  -1.547143e-01 2.301928e-01 0.000000e+00  -2.267581e-01 2.145769e-01 0.000000e+00  -2.232258e-01 2.831295e-01 0.000000e+00  -3.714100e-01 2.868182e-01 0.000000e+00  -3.938345e-01 2.197058e-01 0.000000e+00  -3.997527e-01 1.990228e-01 0.000000e+00  -3.310752e-01 3.639179e-01 0.000000e+00  -3.304643e-01 4.088163e-01 0.000000e+00  -2.798359e-01 4.293107e-01 0.000000e+00  -3.337772e-01 3.169429e-01 0.000000e+00  -3.380849e-01 2.681442e-01 0.000000e+00  -2.835845e-01 3.139897e-01 0.000000e+00  -7.674990e-02 5.441141e-01 0.000000e+00  -7.816784e-02 6.204268e-01 0.000000e+00  0.000000e+00 5.520766e-01 0.000000e+00  -1.506544e-01 5.204800e-01 0.000000e+00  -2.213934e-01 5.465264e-01 0.000000e+00  -2.190950e-01 4.818769e-01 0.000000e+00  -7.632965e-02 4.685424e-01 0.000000e+00  0.000000e+00 3.983318e-01 0.000000e+00  -7.659260e-02 3.929409e-01 0.000000e+00  -2.190251e-01 4.165858e-01 0.000000e+00  -1.508554e-01 3.768698e-01 0.000000e+00  -2.205469e-01 3.504075e-01 0.000000e+00  -1.005095e-01 -1.201176e+00 0.000000e+00  -4.124235e-02 -1.483980e+00 0.000000e+00  -5.170403e-02 -1.438364e+00 0.000000e+00  -1.465192e-01 -9.729935e-01 0.000000e+00  -1.213995e-01 -1.015097e+00 0.000000e+00  -1.898451e-01 -7.537971e-01 0.000000e+00  -1.688440e-01 -9.261042e-01 0.000000e+00  -1.887585e-01 -8.752539e-01 0.000000e+00  -2.379929e-01 -6.654355e-01 0.000000e+00  -3.842152e-01 -3.125428e-02 0.000000e+00  -3.986060e-01 1.135925e-01 0.000000e+00  -3.952072e-01 -1.993766e-02 0.000000e+00  -3.727343e-01 -4.600042e-02 0.000000e+00  -3.840266e-01 1.113190e-01 0.000000e+00  -3.601373e-01 -6.475789e-02 0.000000e+00  -3.508197e-01 -2.123623e-01 0.000000e+00  -3.185103e-01 -3.875854e-01 0.000000e+00  -3.006517e-01 -4.255309e-01 0.000000e+00  -3.050251e-01 -1.488806e-01 0.000000e+00  -3.389867e-01 3.627623e-02 0.000000e+00  -2.760383e-01 -1.857808e-01 0.000000e+00  -3.276380e-01 -1.160973e-01 0.000000e+00  -3.675800e-01 8.765747e-02 0.000000e+00  -3.455121e-01 -8.802784e-02 0.000000e+00  -2.689541e-01 -3.419710e-01 0.000000e+00  -1.991659e-01 -5.826083e-01 0.000000e+00  -2.306111e-01 -5.435106e-01 0.000000e+00  -3.164109e-01 -2.719463e-01 0.000000e+00  -2.574595e-01 -5.038454e-01 0.000000e+00  -2.805402e-01 -4.643617e-01 0.000000e+00  -3.892583e-01 2.372365e-01 0.000000e+00  -3.672167e-01 3.501583e-01 0.000000e+00  -3.325660e-01 4.511927e-01 0.000000e+00  -3.860973e-01 2.507969e-01 0.000000e+00  -3.842429e-01 2.593022e-01 0.000000e+00  -3.788835e-01 2.401609e-01 0.000000e+00  -3.878929e-01 4.160733e-01 0.000000e+00  -3.630110e-01 5.524320e-01 0.000000e+00  -3.820603e-01 2.555075e-01 0.000000e+00  -3.832392e-01 2.613905e-01 0.000000e+00  -1.579046e-01 6.648854e-01 0.000000e+00  -2.370011e-01 6.748423e-01 0.000000e+00  -3.090337e-01 6.394841e-01 0.000000e+00  -2.268746e-01 6.107881e-01 0.000000e+00  -2.855628e-01 5.387528e-01 0.000000e+00  -3.480482e-01 5.247424e-01 0.000000e+00  -3.381436e-01 4.902738e-01 0.000000e+00  -3.726258e-01 3.974292e-01 0.000000e+00  -1.605236e-01 7.830447e-02 0.000000e+00  -8.298383e-02 0.000000e+00 0.000000e+00  -2.309276e-01 1.446086e-01 0.000000e+00  -2.925337e-01 1.929646e-01 0.000000e+00  -2.355773e-01 7.311243e-02 0.000000e+00  -2.405912e-01 0.000000e+00 0.000000e+00  -3.044374e-01 6.590309e-02 0.000000e+00  -4.068593e-01 1.757855e-01 0.000000e+00  -4.152386e-01 1.013936e-01 0.000000e+00  -3.823749e-01 2.134364e-01 0.000000e+00  -3.436260e-01 2.176631e-01 0.000000e+00  -4.149780e-01 1.504248e-01 0.000000e+00  -4.345869e-01 7.963098e-02 0.000000e+00  -4.239380e-01 1.232491e-01 0.000000e+00  -4.544400e-01 3.275423e-02 0.000000e+00  -4.794680e-01 1.808928e-02 0.000000e+00  -4.654432e-01 0.000000e+00 0.000000e+00  -4.437903e-01 6.427594e-02 0.000000e+00  -4.562089e-01 5.128764e-02 0.000000e+00  -4.335861e-01 9.447961e-02 0.000000e+00  -4.157407e-01 4.565822e-02 0.000000e+00  -3.733549e-01 0.000000e+00 0.000000e+00  -3.651282e-01 5.673066e-02 0.000000e+00  -3.501165e-01 1.655767e-01 0.000000e+00  -3.976971e-01 1.326618e-01 0.000000e+00  -3.573393e-01 1.119259e-01 0.000000e+00  -1.393126e-01 -1.284140e-01 0.000000e+00  -1.438270e-01 0.000000e+00 0.000000e+00  0.000000e+00 -1.549540e-01 0.000000e+00  -2.532797e-01 -1.031842e-01 0.000000e+00  -3.535944e-01 0.000000e+00 0.000000e+00  -3.431768e-01 -7.930503e-02 0.000000e+00  -1.347122e-01 -2.528404e-01 0.000000e+00  0.000000e+00 -4.493140e-01 0.000000e+00  -1.300104e-01 -3.732111e-01 0.000000e+00  -1.150788e-01 -7.090713e-01 0.000000e+00  -1.097242e-01 -8.121871e-01 0.000000e+00  0.000000e+00 -9.716969e-01 0.000000e+00  -2.199396e-01 -4.862624e-01 0.000000e+00  -2.999629e-01 -3.766760e-01 0.000000e+00  -3.110716e-01 -3.052641e-01 0.000000e+00  -1.202210e-01 -6.014388e-01 0.000000e+00  0.000000e+00 -7.220437e-01 0.000000e+00  -1.251881e-01 -4.894441e-01 0.000000e+00  -4.818589e-01 -1.624542e-02 0.000000e+00  -4.891435e-01 1.733507e-03 0.000000e+00  -5.019432e-01 0.000000e+00 0.000000e+00  -4.431754e-01 -7.108332e-02 0.000000e+00  -4.302514e-01 -1.059874e-01 0.000000e+00  -3.859977e-01 -1.669590e-01 0.000000e+00  -4.560762e-01 -3.578359e-02 0.000000e+00  -4.689614e-01 0.000000e+00 0.000000e+00  -4.103209e-01 -5.682163e-02 0.000000e+00  -3.219463e-01 -2.319137e-01 0.000000e+00  -3.326361e-01 -1.566020e-01 0.000000e+00  -2.369772e-01 -3.007069e-01 0.000000e+00  -6.121829e-02 -1.383817e+00 0.000000e+00  0.000000e+00 -1.684541e+00 0.000000e+00  -1.327625e-01 -1.093850e+00 0.000000e+00  -2.066431e-01 -8.210974e-01 0.000000e+00  -6.988993e-02 -1.321220e+00 0.000000e+00  0.000000e+00 -1.557332e+00 0.000000e+00  -7.782426e-02 -1.251341e+00 0.000000e+00  -3.789746e-01 -1.627550e-01 0.000000e+00  -4.061075e-01 -1.147790e-02 0.000000e+00  -3.347196e-01 -3.505748e-01 0.000000e+00  -2.758718e-01 -5.715425e-01 0.000000e+00  -3.497617e-01 -3.144235e-01 0.000000e+00  -3.640044e-01 -2.789822e-01 0.000000e+00  -3.073607e-01 -4.746168e-01 0.000000e+00  -9.818578e-02 -1.004049e+00 0.000000e+00  -1.041116e-01 -9.105933e-01 0.000000e+00  0.000000e+00 -1.196234e+00 0.000000e+00  -1.818985e-01 -8.196160e-01 0.000000e+00  -2.644596e-01 -5.793971e-01 0.000000e+00  -2.515089e-01 -6.430821e-01 0.000000e+00  -9.188158e-02 -1.092253e+00 0.000000e+00  0.000000e+00 -1.392776e+00 0.000000e+00  -8.512311e-02 -1.174836e+00 0.000000e+00  -2.228557e-01 -7.641307e-01 0.000000e+00  -2.377184e-01 -7.047113e-01 0.000000e+00  -1.593341e-01 -9.652580e-01 0.000000e+00  -4.171460e-01 -5.360197e-03 0.000000e+00  -4.284391e-01 -1.146502e-03 0.000000e+00  -4.400314e-01 1.523310e-03 0.000000e+00  -4.048367e-01 -1.206665e-01 0.000000e+00  -3.777169e-01 -2.440667e-01 0.000000e+00  -2.017856e-01 -6.594782e-01 0.000000e+00  -2.885545e-01 -4.461671e-01 0.000000e+00  -3.611168e-01 -2.728665e-01 0.000000e+00  -2.767585e-01 -5.137448e-01 0.000000e+00  -3.352132e-01 -3.751923e-01 0.000000e+00  -4.765158e-01 2.881558e-03 0.000000e+00  -4.640971e-01 3.331189e-03 0.000000e+00  -4.519247e-01 2.939081e-03 0.000000e+00  -4.558760e-01 -4.916255e-02 0.000000e+00  -4.172872e-01 -1.406018e-01 0.000000e+00  -4.302475e-01 -8.348853e-02 0.000000e+00  -4.042510e-01 -1.750520e-01 0.000000e+00  -3.910893e-01 -2.094846e-01 0.000000e+00  -1.025310e+00 1.025310e+00 0.000000e+00  -1.432100e+00 8.366663e-01 0.000000e+00  -7.578624e-01 9.154039e-01 0.000000e+00  -6.098012e-01 7.675039e-01 0.000000e+00  -9.154039e-01 7.578624e-01 0.000000e+00  -8.668720e-01 5.619124e-01 0.000000e+00  -7.675039e-01 6.098012e-01 0.000000e+00  -3.792014e-01 3.005069e-01 0.000000e+00  -3.276109e-01 1.332804e-01 0.000000e+00  -4.389973e-01 4.608095e-01 0.000000e+00  -5.122278e-01 6.157861e-01 0.000000e+00  -4.102887e-01 3.905730e-01 0.000000e+00  -3.554505e-01 3.159573e-01 0.000000e+00  -4.367710e-01 4.361982e-01 0.000000e+00  -3.005069e-01 3.792014e-01 0.000000e+00  -1.332804e-01 3.276109e-01 0.000000e+00  -1.782480e-01 3.550448e-01 0.000000e+00  -3.905730e-01 4.102887e-01 0.000000e+00  -3.159573e-01 3.554505e-01 0.000000e+00  -4.361982e-01 4.367710e-01 0.000000e+00  -4.608095e-01 4.389973e-01 0.000000e+00  -5.184505e-01 4.432350e-01 0.000000e+00  -6.157861e-01 5.122278e-01 0.000000e+00  -5.972260e-01 6.470138e-01 0.000000e+00  -5.337395e-01 5.337395e-01 0.000000e+00  -6.470138e-01 5.972260e-01 0.000000e+00  -6.075452e-02 -1.280949e+00 0.000000e+00  -2.973335e-02 -1.519672e+00 0.000000e+00  -9.311857e-02 -1.051421e+00 0.000000e+00  -1.269237e-01 -8.311340e-01 0.000000e+00  -6.134879e-02 -1.080819e+00 0.000000e+00  -2.581839e-02 -1.102012e+00 0.000000e+00  -4.513665e-02 -8.886612e-01 0.000000e+00  -2.390890e-01 -2.256305e-01 0.000000e+00  -2.814401e-01 -4.189161e-02 0.000000e+00  -1.995883e-01 -4.183007e-01 0.000000e+00  -1.623298e-01 -6.201032e-01 0.000000e+00  -1.928420e-01 -2.667517e-01 0.000000e+00  -1.789464e-01 -1.337360e-01 0.000000e+00  -1.363647e-01 -3.071229e-01 0.000000e+00  9.739707e-02 -4.026643e-01 0.000000e+00  1.789002e-01 -2.802420e-01 0.000000e+00  1.961844e-01 -4.196904e-01 0.000000e+00  8.816369e-03 -3.770756e-01 0.000000e+00  -2.478970e-02 -2.191453e-01 0.000000e+00  -6.917349e-02 -3.445938e-01 0.000000e+00  3.387676e-02 -5.461395e-01 0.000000e+00  5.036613e-02 -7.256703e-01 0.000000e+00  -1.333794e-02 -7.091154e-01 0.000000e+00  -1.194103e-01 -6.547008e-01 0.000000e+00  -1.001749e-01 -4.909714e-01 0.000000e+