<?xml version="1.0"?>
<VTKFile type="UnstructuredGrid"  version="0.1"  >
<UnstructuredGrid>
<Piece  NumberOfPoints="65" NumberOfCells="96">
<Points>
<DataArray  type="Float32"  NumberOfComponents="3"  format="ascii">0 0 0  1 0 0  1 1 0  0 1 0  -1 1 0  -1 0 0  -1 -1 0  0 -1 0  0.5 0.5 0  0 0.5 0  0.5 0 0  0.5 1 0  1 0.5 0  -0.5 0.5 0  -0.5 0 0  -1 0.5 0  -0.5 1 0  -0.5 -0.5 0  0 -0.5 0  -0.5 -1 0  -1 -0.5 0  0.25 0.25 0  0.25 0 0  0 0.25 0  0.5 0.25 0  0.75 0 0  0.75 0.25 0  0.25 0.5 0  0 0.75 0  0.25 0.75 0  0.75 0.5 0  1 0.25 0  0.75 0.75 0  1 0.75 0  0.75 1 0  0.5 0.75 0  0.25 1 0  -0.25 0.25 0  -0.25 0 0  -0.25 0.5 0  -0.25 0.75 0  -0.5 0.25 0  -0.75 0 0  -0.75 0.25 0  -0.5 0.75 0  -0.25 1 0  -0.75 0.75 0  -0.75 1 0  -1 0.75 0  -0.75 0.5 0  -1 0.25 0  -0.25 -0.25 0  0 -0.25 0  -0.5 -0.25 0  -0.75 -0.25 0  -0.25 -0.5 0  0 -0.75 0  -0.25 -0.75 0  -0.75 -0.5 0  -1 -0.25 0  -0.75 -0.75 0  -1 -0.75 0  -0.75 -1 0  -0.5 -0.75 0  -0.25 -1 0  </DataArray>
</Points>
<Cells>
<DataArray  type="UInt32"  Name="connectivity"  format="ascii">0 22 23  9 21 23  10 21 22  21 22 23  1 25 26  8 24 26  10 24 25  24 25 26  3 28 29  8 27 29  9 27 28  27 28 29  8 24 27  9 21 27  10 21 24  21 24 27  1 26 31  8 26 30  12 30 31  26 30 31  2 33 34  11 32 34  12 32 33  32 33 34  3 29 36  8 29 35  11 35 36  29 35 36  8 30 35  11 32 35  12 30 32  30 32 35  0 23 38  9 23 37  14 37 38  23 37 38  3 28 40  9 28 39  13 39 40  28 39 40  5 42 43  13 41 43  14 41 42  41 42 43  9 37 39  13 39 41  14 37 41  37 39 41  3 40 45  13 40 44  16 44 45  40 44 45  4 47 48  15 46 48  16 46 47  46 47 48  5 43 50  13 43 49  15 49 50  43 49 50  13 44 49  15 46 49  16 44 46  44 46 49  0 38 52  14 38 51  18 51 52  38 51 52  5 42 54  14 42 53  17 53 54  42 53 54  7 56 57  17 55 57  18 55 56  55 56 57  14 51 53  17 53 55  18 51 55  51 53 55  5 54 59  17 54 58  20 58 59  54 58 59  6 61 62  19 60 62  20 60 61  60 61 62  7 57 64  17 57 63  19 63 64  57 63 64  17 58 63  19 60 63  20 58 60  58 60 63  </DataArray>
<DataArray  type="UInt32"  Name="offsets"  format="ascii">3 6 9 12 15 18 21 24 27 30 33 36 39 42 45 48 51 54 57 60 63 66 69 72 75 78 81 84 87 90 93 96 99 102 105 108 111 114 117 120 123 126 129 132 135 138 141 144 147 150 153 156 159 162 165 168 171 174 177 180 183 186 189 192 195 198 201 204 207 210 213 216 219 222 225 228 231 234 237 240 243 246 249 252 255 258 261 264 267 270 273 276 279 282 285 288 </DataArray>
<DataArray  type="UInt8"  Name="types"  format="ascii">5 5 5 5 5 5 5 5 5 5 5 5 5 5 5 5 5 5 5 5 5 5 5 5 5 5 5 5 5 5 5 5 5 5 5 5 5 5 5 5 5 5 5 5 5 5 5 5 5 5 5 5 5 5 5 5 5 5 5 5 5 5 5 5 5 5 5 5 5 5 5 5 5 5 5 5 5 5 5 5 5 5 5 5 5 5 5 5 5 5 5 5 5 5 5 5 </DataArray>
</Cells>
<PointData  Vectors="u"> 
<DataArray  type="Float32"  Name="u"  NumberOfComponents="3" format="ascii">0.000000e+00 0.000000e+00 0.000000e+00  0.000000e+00 0.000000e+00 0.000000e+00  0.000000e+00 0.000000e+00 0.000000e+00  0.000000e+00 -1.732051e+00 0.000000e+00  0.000000e+00 0.000000e+00 0.000000e+00  1.732051e+00 0.000000e+00 0.000000e+00  0.000000e+00 0.000000e+00 0.000000e+00  0.000000e+00 0.000000e+00 0.000000e+00  -4.065807e-01 1.089430e-01 0.000000e+00  -3.149803e-01 0.000000e+00 0.000000e+00  0.000000e+00 6.299605e-01 0.000000e+00  0.000000e+00 -1.087262e+00 0.000000e+00  -4.915341e-01 0.000000e+00 0.000000e+00  2.976377e-01 -2.976377e-01 0.000000e+00  0.000000e+00 3.149803e-01 0.000000e+00  1.578796e+00 0.000000e+00 0.000000e+00  0.000000e+00 -1.578796e+00 0.000000e+00  -1.089430e-01 4.065807e-01 0.000000e+00  -6.299605e-01 0.000000e+00 0.000000e+00  0.000000e+00 4.915341e-01 0.000000e+00  1.087262e+00 0.000000e+00 0.000000e+00  -3.316555e-01 6.832180e-01 0.000000e+00  0.000000e+00 9.921257e-01 0.000000e+00  -4.960628e-01 6.873648e-01 0.000000e+00  -2.811224e-01 4.848331e-01 0.000000e+00  0.000000e+00 3.210207e-01 0.000000e+00  -2.875815e-01 2.542083e-01 0.000000e+00  -3.764977e-01 1.026323e-01 0.000000e+00  -1.605104e-01 -7.943202e-01 0.000000e+00  -2.579497e-01 -6.189645e-01 0.000000e+00  -4.451540e-01 6.615193e-02 0.000000e+00  -3.110872e-01 0.000000e+00 0.000000e+00  -3.736481e-01 -2.204036e-01 0.000000e+00  -4.223463e-01 0.000000e+00 0.000000e+00  0.000000e+00 -5.884616e-01 0.000000e+00  -3.216142e-01 -4.252299e-01 0.000000e+00  0.000000e+00 -1.479353e+00 0.000000e+00  -3.515625e-01 3.515625e-01 0.000000e+00  -6.873648e-01 4.960628e-01 0.000000e+00  -1.083354e-01 -1.784901e-01 0.000000e+00  3.741371e-03 -9.065460e-01 0.000000e+00  1.784901e-01 1.083354e-01 0.000000e+00  7.943202e-01 1.605104e-01 0.000000e+00  9.065460e-01 -3.741371e-03 0.000000e+00  2.554623e-01 -8.703838e-01 0.000000e+00  0.000000e+00 -1.790440e+00 0.000000e+00  5.940517e-01 -5.940517e-01 0.000000e+00  0.000000e+00 -1.010808e+00 0.000000e+00  1.010808e+00 0.000000e+00 0.000000e+00  8.703838e-01 -2.554623e-01 0.000000e+00  1.790440e+00 0.000000e+00 0.000000e+00  -6.832180e-01 3.316555e-01 0.000000e+00  -9.921257e-01 0.000000e+00 0.000000e+00  -1.026323e-01 3.764977e-01 0.000000e+00  6.189645e-01 2.579497e-01 0.000000e+00  -4.848331e-01 2.811224e-01 0.000000e+00  -3.210207e-01 0.000000e+00 0.000000e+00  -2.542083e-01 2.875815e-01 0.000000e+00  4.252299e-01 3.216142e-01 0.000000e+00  1.479353e+00 0.000000e+00 0.000000e+00  2.204036e-01 3.736481e-01 0.000000e+00  5.884616e-01 0.000000e+00 0.000000e+00  0.000000e+00 4.223463e-01 0.000000e+00  -6.615193e-02 4.451540e-01 0.000000e+00  0.000000e+00 3.110872e-01 0.000000e+00  </DataArray> 
</PointData> 
</Piece>
</UnstructuredGrid>
</VTKFile>