<?xml version="1.0"?>
<VTKFile type="UnstructuredGrid"  version="0.1"  >
<UnstructuredGrid>
<Piece  NumberOfPoints="65" NumberOfCells="96">
<Points>
<DataArray  type="Float64"  NumberOfComponents="3"  format="ascii">0 0 0  1 0 0  1 1 0  0 1 0  -1 1 0  -1 0 0  -1 -1 0  0 -1 0  0.5 0.5 0  0 0.5 0  0.5 0 0  0.5 1 0  1 0.5 0  -0.5 0.5 0  -0.5 0 0  -1 0.5 0  -0.5 1 0  -0.5 -0.5 0  0 -0.5 0  -0.5 -1 0  -1 -0.5 0  0.25 0.25 0  0.25 0 0  0 0.25 0  0.5 0.25 0  0.75 0 0  0.75 0.25 0  0.25 0.5 0  0 0.75 0  0.25 0.75 0  0.75 0.5 0  1 0.25 0  0.75 0.75 0  1 0.75 0  0.75 1 0  0.5 0.75 0  0.25 1 0  -0.25 0.25 0  -0.25 0 0  -0.25 0.5 0  -0.25 0.75 0  -0.5 0.25 0  -0.75 0 0  -0.75 0.25 0  -0.5 0.75 0  -0.25 1 0  -0.75 0.75 0  -0.75 1 0  -1 0.75 0  -0.75 0.5 0  -1 0.25 0  -0.25 -0.25 0  0 -0.25 0  -0.5 -0.25 0  -0.75 -0.25 0  -0.25 -0.5 0  0 -0.75 0  -0.25 -0.75 0  -0.75 -0.5 0  -1 -0.25 0  -0.75 -0.75 0  -1 -0.75 0  -0.75 -1 0  -0.5 -0.75 0  -0.25 -1 0  </DataArray>
</Points>
<Cells>
<DataArray  type="UInt32"  Name="connectivity"  format="ascii">0 22 23  9 21 23  10 21 22  21 22 23  1 25 26  8 24 26  10 24 25  24 25 26  3 28 29  8 27 29  9 27 28  27 28 29  8 24 27  9 21 27  10 21 24  21 24 27  1 26 31  8 26 30  12 30 31  26 30 31  2 33 34  11 32 34  12 32 33  32 33 34  3 29 36  8 29 35  11 35 36  29 35 36  8 30 35  11 32 35  12 30 32  30 32 35  0 23 38  9 23 37  14 37 38  23 37 38  3 28 40  9 28 39  13 39 40  28 39 40  5 42 43  13 41 43  14 41 42  41 42 43  9 37 39  13 39 41  14 37 41  37 39 41  3 40 45  13 40 44  16 44 45  40 44 45  4 47 48  15 46 48  16 46 47  46 47 48  5 43 50  13 43 49  15 49 50  43 49 50  13 44 49  15 46 49  16 44 46  44 46 49  0 38 52  14 38 51  18 51 52  38 51 52  5 42 54  14 42 53  17 53 54  42 53 54  7 56 57  17 55 57  18 55 56  55 56 57  14 51 53  17 53 55  18 51 55  51 53 55  5 54 59  17 54 58  20 58 59  54 58 59  6 61 62  19 60 62  20 60 61  60 61 62  7 57 64  17 57 63  19 63 64  57 63 64  17 58 63  19 60 63  20 58 60  58 60 63  </DataArray>
<DataArray  type="UInt32"  Name="offsets"  format="ascii">3 6 9 12 15 18 21 24 27 30 33 36 39 42 45 48 51 54 57 60 63 66 69 72 75 78 81 84 87 90 93 96 99 102 105 108 111 114 117 120 123 126 129 132 135 138 141 144 147 150 153 156 159 162 165 168 171 174 177 180 183 186 189 192 195 198 201 204 207 210 213 216 219 222 225 228 231 234 237 240 243 246 249 252 255 258 261 264 267 270 273 276 279 282 285 288 </DataArray>
<DataArray  type="UInt8"  Name="types"  format="ascii">5 5 5 5 5 5 5 5 5 5 5 5 5 5 5 5 5 5 5 5 5 5 5 5 5 5 5 5 5 5 5 5 5 5 5 5 5 5 5 5 5 5 5 5 5 5 5 5 5 5 5 5 5 5 5 5 5 5 5 5 5 5 5 5 5 5 5 5 5 5 5 5 5 5 5 5 5 5 5 5 5 5 5 5 5 5 5 5 5 5 5 5 5 5 5 5 </DataArray>
</Cells>
<PointData  Vectors="u"> 
<DataArray  type="Float64"  Name="u"  NumberOfComponents="3" format="ascii">0.0000000000000000e+00 0.0000000000000000e+00 0.0000000000000000e+00  0.0000000000000000e+00 0.0000000000000000e+00 0.0000000000000000e+00  0.0000000000000000e+00 0.0000000000000000e+00 0.0000000000000000e+00  0.0000000000000000e+00 -1.7320508075688772e+00 0.0000000000000000e+00  0.0000000000000000e+00 0.0000000000000000e+00 0.0000000000000000e+00  1.7320508075688774e+00 0.0000000000000000e+00 0.0000000000000000e+00  0.0000000000000000e+00 0.0000000000000000e+00 0.0000000000000000e+00  0.0000000000000000e+00 0.0000000000000000e+00 0.0000000000000000e+00  -4.0658065555925665e-01 1.0894295831521938e-01 0.0000000000000000e+00  -3.1498026247371824e-01 0.0000000000000000e+00 0.0000000000000000e+00  0.0000000000000000e+00 6.2996052494743660e-01 0.0000000000000000e+00  0.0000000000000000e+00 -1.0872618141689698e+00 0.0000000000000000e+00  -4.9153410380406493e-01 0.0000000000000000e+00 0.0000000000000000e+00  2.9763769724403749e-01 -2.9763769724403744e-01 0.0000000000000000e+00  0.0000000000000000e+00 3.1498026247371835e-01 0.0000000000000000e+00  1.5787959179730349e+00 0.0000000000000000e+00 0.0000000000000000e+00  0.0000000000000000e+00 -1.5787959179730349e+00 0.0000000000000000e+00  -1.0894295831521911e-01 4.0658065555925693e-01 0.0000000000000000e+00  -6.2996052494743660e-01 0.0000000000000000e+00 0.0000000000000000e+00  0.0000000000000000e+00 4.9153410380406559e-01 0.0000000000000000e+00  1.0872618141689705e+00 0.0000000000000000e+00 0.0000000000000000e+00  -3.3165551002994448e-01 6.8321801002994442e-01 0.0000000000000000e+00  0.0000000000000000e+00 9.9212565748012449e-01 0.0000000000000000e+00  -4.9606282874006213e-01 6.8736481849930131e-01 0.0000000000000000e+00  -2.8112243579152252e-01 4.8483310106755090e-01 0.0000000000000000e+00  0.0000000000000000e+00 3.2102070475364425e-01 0.0000000000000000e+00  -2.8758148386537691e-01 2.5420830107435904e-01 0.0000000000000000e+00  -3.7649767017047364e-01 1.0263233218408863e-01 0.0000000000000000e+00  -1.6051035237682210e-01 -7.9432024416411384e-01 0.0000000000000000e+00  -2.5794967195763846e-01 -6.1896448945307592e-01 0.0000000000000000e+00  -4.4515397421274477e-01 6.6151929572448726e-02 0.0000000000000000e+00  -3.1108724237295959e-01 0.0000000000000000e+00 0.0000000000000000e+00  -3.7364813810544645e-01 -2.2040357872100863e-01 0.0000000000000000e+00  -4.2234630587192129e-01 0.0000000000000000e+00 0.0000000000000000e+00  0.0000000000000000e+00 -5.8846157311336011e-01 0.0000000000000000e+00  -3.2161423468357503e-01 -4.2522986292132353e-01 0.0000000000000000e+00  0.0000000000000000e+00 -1.4793529639740306e+00 0.0000000000000000e+00  -3.5156249999999989e-01 3.5156250000000000e-01 0.0000000000000000e+00  -6.8736481849930120e-01 4.9606282874006236e-01 0.0000000000000000e+00  -1.0833543089707726e-01 -1.7849010360743400e-01 0.0000000000000000e+00  3.7413708832794434e-03 -9.0654597331845288e-01 0.0000000000000000e+00  1.7849010360743406e-01 1.0833543089707731e-01 0.0000000000000000e+00  7.9432024416411395e-01 1.6051035237682215e-01 0.0000000000000000e+00  9.0654597331845310e-01 -3.7413708832794712e-03 0.0000000000000000e+00  2.5546230511112633e-01 -8.7038383713406819e-01 0.0000000000000000e+00  0.0000000000000000e+00 -1.7904402063469902e+00 0.0000000000000000e+00  5.9405171682645530e-01 -5.9405171682645530e-01 0.0000000000000000e+00  0.0000000000000000e+00 -1.0108078789852815e+00 0.0000000000000000e+00  1.0108078789852815e+00 0.0000000000000000e+00 0.0000000000000000e+00  8.7038383713406842e-01 -2.5546230511112633e-01 0.0000000000000000e+00  1.7904402063469904e+00 0.0000000000000000e+00 0.0000000000000000e+00  -6.8321801002994431e-01 3.3165551002994453e-01 0.0000000000000000e+00  -9.9212565748012449e-01 0.0000000000000000e+00 0.0000000000000000e+00  -1.0263233218408829e-01 3.7649767017047375e-01 0.0000000000000000e+00  6.1896448945307625e-01 2.5794967195763852e-01 0.0000000000000000e+00  -4.8483310106755079e-01 2.8112243579152285e-01 0.0000000000000000e+00  -3.2102070475364425e-01 0.0000000000000000e+00 0.0000000000000000e+00  -2.5420830107435904e-01 2.8758148386537702e-01 0.0000000000000000e+00  4.2522986292132364e-01 3.2161423468357514e-01 0.0000000000000000e+00  1.4793529639740310e+00 0.0000000000000000e+00 0.0000000000000000e+00  2.2040357872100891e-01 3.7364813810544673e-01 0.0000000000000000e+00  5.8846157311336045e-01 0.0000000000000000e+00 0.0000000000000000e+00  0.0000000000000000e+00 4.2234630587192135e-01 0.0000000000000000e+00  -6.6151929572448531e-02 4.4515397421274533e-01 0.0000000000000000e+00  0.0000000000000000e+00 3.1108724237296048e-01 0.0000000000000000e+00  </DataArray> 
</PointData> 
</Piece>
</UnstructuredGrid>
</VTKFile>